    1C
    1UUSER                                                              
    1UDATE              08.june.2018                                    
    1UTIME              10:58:42                                        
    1UHOST                                                              
    1UPGM               CalculiX                                        
    1UVERSION           Version 2.13                             
    1UCOMPILETIME       So 8. Okt 22:10:07 CEST 2017                    
    1UDIR                                                               
    1UDBN                                                               
    1UMAT    1CONCRETE                                                  
    2C                           397                                     1
 -1         1 0.00000E+00 0.00000E+00 0.00000E+00
 -1         2 2.43840E+00 0.00000E+00 0.00000E+00
 -1         3 6.70560E+00 3.65760E+00 0.00000E+00
 -1         4 3.32232E+01 4.12047E+00 0.00000E+00
 -1         5 3.50520E+01 4.15239E+00 0.00000E+00
 -1         6 3.50520E+01 8.41959E+00 0.00000E+00
 -1         8 6.70560E+00 2.22504E+01 0.00000E+00
 -1        10 4.26720E+00 2.98704E+01 0.00000E+00
 -1        11 6.09600E-01 3.35280E+01 0.00000E+00
 -1        12 0.00000E+00 3.35280E+01 0.00000E+00
 -1        13 6.09600E-01 0.00000E+00 0.00000E+00
 -1        14 1.21920E+00 0.00000E+00 0.00000E+00
 -1        15 1.82880E+00 0.00000E+00 0.00000E+00
 -1        16 3.04800E-01 0.00000E+00 0.00000E+00
 -1        17 9.14400E-01 0.00000E+00 0.00000E+00
 -1        18 1.52400E+00 0.00000E+00 0.00000E+00
 -1        19 2.13360E+00 0.00000E+00 0.00000E+00
 -1        20 3.50520E+00 9.14400E-01 0.00000E+00
 -1        21 4.57200E+00 1.82880E+00 0.00000E+00
 -1        22 5.63880E+00 2.74320E+00 0.00000E+00
 -1        23 2.97180E+00 4.57200E-01 0.00000E+00
 -1        24 4.03860E+00 1.37160E+00 0.00000E+00
 -1        25 5.10540E+00 2.28600E+00 0.00000E+00
 -1        26 6.17220E+00 3.20040E+00 0.00000E+00
 -1        27 1.00203E+01 3.71546E+00 0.00000E+00
 -1        28 1.33350E+01 3.77332E+00 0.00000E+00
 -1        29 1.66497E+01 3.83118E+00 0.00000E+00
 -1        30 1.99644E+01 3.88903E+00 0.00000E+00
 -1        31 2.32791E+01 3.94689E+00 0.00000E+00
 -1        32 2.65938E+01 4.00475E+00 0.00000E+00
 -1        33 2.99085E+01 4.06261E+00 0.00000E+00
 -1        34 8.36295E+00 3.68653E+00 0.00000E+00
 -1        35 1.16777E+01 3.74439E+00 0.00000E+00
 -1        36 1.49923E+01 3.80225E+00 0.00000E+00
 -1        37 1.83071E+01 3.86010E+00 0.00000E+00
 -1        38 2.16217E+01 3.91796E+00 0.00000E+00
 -1        39 2.49364E+01 3.97582E+00 0.00000E+00
 -1        40 2.82512E+01 4.03368E+00 0.00000E+00
 -1        41 3.15658E+01 4.09154E+00 0.00000E+00
 -1        42 3.36804E+01 4.12845E+00 0.00000E+00
 -1        43 3.41376E+01 4.13643E+00 0.00000E+00
 -1        44 3.45948E+01 4.14441E+00 0.00000E+00
 -1        45 3.34518E+01 4.12446E+00 0.00000E+00
 -1        46 3.39090E+01 4.13244E+00 0.00000E+00
 -1        47 3.43662E+01 4.14042E+00 0.00000E+00
 -1        48 3.48234E+01 4.14840E+00 0.00000E+00
 -1        49 3.50520E+01 5.21919E+00 0.00000E+00
 -1        50 3.50520E+01 6.28599E+00 0.00000E+00
 -1        51 3.50520E+01 7.35279E+00 0.00000E+00
 -1        52 3.50520E+01 4.68579E+00 0.00000E+00
 -1        53 3.50520E+01 5.75259E+00 0.00000E+00
 -1        54 3.50520E+01 6.81939E+00 0.00000E+00
 -1        55 3.50520E+01 7.88619E+00 0.00000E+00
 -1        56 3.24397E+01 8.93301E+00 0.00000E+00
 -1        57 2.98548E+01 9.57049E+00 0.00000E+00
 -1        58 2.73033E+01 1.03306E+01 0.00000E+00
 -1        59 2.47909E+01 1.12115E+01 0.00000E+00
 -1        60 2.23235E+01 1.22113E+01 0.00000E+00
 -1        61 1.99065E+01 1.33277E+01 0.00000E+00
 -1        62 1.75456E+01 1.45582E+01 0.00000E+00
 -1        63 1.52460E+01 1.58999E+01 0.00000E+00
 -1        64 1.30132E+01 1.73498E+01 0.00000E+00
 -1        65 1.08520E+01 1.89045E+01 0.00000E+00
 -1        66 8.76743E+00 2.05606E+01 0.00000E+00
 -1        67 3.37428E+01 8.66071E+00 0.00000E+00
 -1        68 3.11434E+01 9.23633E+00 0.00000E+00
 -1        69 2.85745E+01 9.93531E+00 0.00000E+00
 -1        70 2.60418E+01 1.07561E+01 0.00000E+00
 -1        71 2.35512E+01 1.16967E+01 0.00000E+00
 -1        72 2.11083E+01 1.27551E+01 0.00000E+00
 -1        73 1.87187E+01 1.39289E+01 0.00000E+00
 -1        74 1.63878E+01 1.52153E+01 0.00000E+00
 -1        75 1.41209E+01 1.66115E+01 0.00000E+00
 -1        76 1.19233E+01 1.81142E+01 0.00000E+00
 -1        77 9.79982E+00 1.97201E+01 0.00000E+00
 -1        78 7.75539E+00 2.14255E+01 0.00000E+00
 -1        79 5.38402E+00 2.38623E+01 0.00000E+00
 -1        80 4.49953E+00 2.57497E+01 0.00000E+00
 -1        81 4.10651E+00 2.77967E+01 0.00000E+00
 -1        82 5.99467E+00 2.30152E+01 0.00000E+00
 -1        83 4.88306E+00 2.47785E+01 0.00000E+00
 -1        84 4.23934E+00 2.67610E+01 0.00000E+00
 -1        85 4.10307E+00 2.88409E+01 0.00000E+00
 -1        86 3.35280E+00 3.07848E+01 0.00000E+00
 -1        87 2.43840E+00 3.16992E+01 0.00000E+00
 -1        88 1.52400E+00 3.26136E+01 0.00000E+00
 -1        89 3.81000E+00 3.03276E+01 0.00000E+00
 -1        90 2.89560E+00 3.12420E+01 0.00000E+00
 -1        91 1.98120E+00 3.21564E+01 0.00000E+00
 -1        92 1.06680E+00 3.30708E+01 0.00000E+00
 -1        93 4.57200E-01 3.35280E+01 0.00000E+00
 -1        94 3.04800E-01 3.35280E+01 0.00000E+00
 -1        95 1.52400E-01 3.35280E+01 0.00000E+00
 -1        96 5.33400E-01 3.35280E+01 0.00000E+00
 -1        97 3.81000E-01 3.35280E+01 0.00000E+00
 -1        98 2.28600E-01 3.35280E+01 0.00000E+00
 -1        99 7.62000E-02 3.35280E+01 0.00000E+00
 -1       100 0.00000E+00 3.07340E+01 0.00000E+00
 -1       101 0.00000E+00 2.79400E+01 0.00000E+00
 -1       102 0.00000E+00 2.51460E+01 0.00000E+00
 -1       103 0.00000E+00 2.23520E+01 0.00000E+00
 -1       104 0.00000E+00 1.95580E+01 0.00000E+00
 -1       105 0.00000E+00 1.67640E+01 0.00000E+00
 -1       106 0.00000E+00 1.39700E+01 0.00000E+00
 -1       107 0.00000E+00 1.11760E+01 0.00000E+00
 -1       108 0.00000E+00 8.38200E+00 0.00000E+00
 -1       109 0.00000E+00 5.58800E+00 0.00000E+00
 -1       110 0.00000E+00 2.79400E+00 0.00000E+00
 -1       111 0.00000E+00 3.21310E+01 0.00000E+00
 -1       112 0.00000E+00 2.93370E+01 0.00000E+00
 -1       113 0.00000E+00 2.65430E+01 0.00000E+00
 -1       114 0.00000E+00 2.37490E+01 0.00000E+00
 -1       115 0.00000E+00 2.09550E+01 0.00000E+00
 -1       116 0.00000E+00 1.81610E+01 0.00000E+00
 -1       117 0.00000E+00 1.53670E+01 0.00000E+00
 -1       118 0.00000E+00 1.25730E+01 0.00000E+00
 -1       119 0.00000E+00 9.77900E+00 0.00000E+00
 -1       120 0.00000E+00 6.98500E+00 0.00000E+00
 -1       121 0.00000E+00 4.19100E+00 0.00000E+00
 -1       122 0.00000E+00 1.39700E+00 0.00000E+00
 -1       123 8.71939E+00 1.38229E+01 0.00000E+00
 -1       124 8.92323E+00 8.34716E+00 0.00000E+00
 -1       125 2.85098E+00 2.79111E+00 0.00000E+00
 -1       126 3.15717E+01 6.44549E+00 0.00000E+00
 -1       127 4.66074E+00 4.54607E+00 0.00000E+00
 -1       128 4.76978E+00 1.82218E+01 0.00000E+00
 -1       129 3.30373E+01 4.88107E+00 0.00000E+00
 -1       130 1.47876E+01 9.24034E+00 0.00000E+00
 -1       131 4.21096E+00 1.15095E+01 0.00000E+00
 -1       132 4.53819E+00 7.55625E+00 0.00000E+00
 -1       133 1.30474E+01 1.31341E+01 0.00000E+00
 -1       134 2.99479E+00 1.54940E+01 0.00000E+00
 -1       135 2.56924E+01 7.60814E+00 0.00000E+00
 -1       136 2.23777E+01 7.55028E+00 0.00000E+00
 -1       137 1.73760E+01 6.56469E+00 0.00000E+00
 -1       138 1.40613E+01 6.50683E+00 0.00000E+00
 -1       139 3.40447E+01 4.51673E+00 0.00000E+00
 -1       140 3.35875E+01 4.50875E+00 0.00000E+00
 -1       141 3.31303E+01 4.50077E+00 0.00000E+00
 -1       142 1.21920E+00 3.26136E+01 0.00000E+00
 -1       143 1.21920E+00 2.98196E+01 0.00000E+00
 -1       144 2.13360E+00 2.89052E+01 0.00000E+00
 -1       145 1.37160E+00 3.26136E+01 0.00000E+00
 -1       146 1.18554E+01 8.79375E+00 0.00000E+00
 -1       147 7.81442E+00 6.00238E+00 0.00000E+00
 -1       148 1.09379E+01 6.25460E+00 0.00000E+00
 -1       149 3.07133E+01 8.00799E+00 0.00000E+00
 -1       150 2.90828E+01 5.22512E+00 0.00000E+00
 -1       151 2.81930E+01 7.77785E+00 0.00000E+00
 -1       152 2.24977E+00 2.40508E+01 0.00000E+00
 -1       153 2.05325E+00 2.64713E+01 0.00000E+00
 -1       154 2.26909E+00 6.57212E+00 0.00000E+00
 -1       155 1.42549E+00 4.18955E+00 0.00000E+00
 -1       156 3.75586E+00 3.66859E+00 0.00000E+00
 -1       157 4.59947E+00 6.05116E+00 0.00000E+00
 -1       158 3.01248E+00 5.12036E+00 0.00000E+00
 -1       159 6.73071E+00 7.95170E+00 0.00000E+00
 -1       160 8.82131E+00 1.10850E+01 0.00000E+00
 -1       161 6.46517E+00 1.26662E+01 0.00000E+00
 -1       162 4.37457E+00 9.53287E+00 0.00000E+00
 -1       163 6.59794E+00 1.03089E+01 0.00000E+00
 -1       164 1.73471E+01 1.12840E+01 0.00000E+00
 -1       165 1.98497E+01 9.38801E+00 0.00000E+00
 -1       166 2.10548E+00 1.13427E+01 0.00000E+00
 -1       167 2.18729E+00 8.95743E+00 0.00000E+00
 -1       168 3.60287E+00 1.35018E+01 0.00000E+00
 -1       169 1.49739E+00 1.61290E+01 0.00000E+00
 -1       170 1.80144E+00 1.37359E+01 0.00000E+00
 -1       171 5.73769E+00 2.02361E+01 0.00000E+00
 -1       172 6.74458E+00 1.60223E+01 0.00000E+00
 -1       173 9.78568E+00 1.63637E+01 0.00000E+00
 -1       174 7.75601E+00 1.82915E+01 0.00000E+00
 -1       175 3.88228E+00 1.68579E+01 0.00000E+00
 -1       176 2.38489E+00 2.02869E+01 0.00000E+00
 -1       177 1.94114E+00 1.82080E+01 0.00000E+00
 -1       178 1.08834E+01 1.34785E+01 0.00000E+00
 -1       179 1.41467E+01 1.45170E+01 0.00000E+00
 -1       180 1.19483E+01 1.54141E+01 0.00000E+00
 -1       181 1.39175E+01 1.11872E+01 0.00000E+00
 -1       182 1.57315E+01 1.28727E+01 0.00000E+00
 -1       183 5.68317E+00 4.10183E+00 0.00000E+00
 -1       184 6.20694E+00 6.02677E+00 0.00000E+00
 -1       185 5.17373E+00 1.47621E+01 0.00000E+00
 -1       186 3.71149E+00 2.30995E+00 0.00000E+00
 -1       187 4.69733E+00 3.20589E+00 0.00000E+00
 -1       188 1.13694E+01 1.11361E+01 0.00000E+00
 -1       189 2.03509E+00 1.39555E+00 0.00000E+00
 -1       190 2.77014E+00 1.15498E+00 0.00000E+00
 -1       191 3.23045E+01 5.66328E+00 0.00000E+00
 -1       192 3.11065E+01 4.86295E+00 0.00000E+00
 -1       193 3.33119E+01 6.36574E+00 0.00000E+00
 -1       194 3.36783E+01 5.44124E+00 0.00000E+00
 -1       195 3.28758E+01 7.64938E+00 0.00000E+00
 -1       196 3.88445E+00 2.20746E+01 0.00000E+00
 -1       197 1.01754E+00 2.09478E+00 0.00000E+00
 -1       198 2.37830E+01 6.36844E+00 0.00000E+00
 -1       199 1.60290E+01 5.63423E+00 0.00000E+00
 -1       200 3.40756E+01 4.38996E+00 0.00000E+00
 -1       201 3.34660E+01 4.37932E+00 0.00000E+00
 -1       202 8.12800E-01 3.10557E+01 0.00000E+00
 -1       203 2.23520E+00 2.98365E+01 0.00000E+00
 -1       204 9.14400E-01 3.29184E+01 0.00000E+00
 -1       205 1.11760E+00 3.29184E+01 0.00000E+00
 -1       206 1.04791E+01 4.98503E+00 0.00000E+00
 -1       207 9.37614E+00 6.12849E+00 0.00000E+00
 -1       208 7.26001E+00 4.82999E+00 0.00000E+00
 -1       209 1.36982E+01 5.14007E+00 0.00000E+00
 -1       210 1.24996E+01 6.38072E+00 0.00000E+00
 -1       211 1.44245E+01 7.87358E+00 0.00000E+00
 -1       212 1.33215E+01 9.01705E+00 0.00000E+00
 -1       213 1.13967E+01 7.52418E+00 0.00000E+00
 -1       214 1.03893E+01 8.57046E+00 0.00000E+00
 -1       215 8.36883E+00 7.17477E+00 0.00000E+00
 -1       216 3.11425E+01 7.22674E+00 0.00000E+00
 -1       217 2.94531E+01 7.89292E+00 0.00000E+00
 -1       218 2.86379E+01 6.50148E+00 0.00000E+00
 -1       219 3.03272E+01 5.83531E+00 0.00000E+00
 -1       220 3.02840E+01 8.78924E+00 0.00000E+00
 -1       221 2.77481E+01 9.05421E+00 0.00000E+00
 -1       222 2.52416E+01 9.40983E+00 0.00000E+00
 -1       223 2.69427E+01 7.69299E+00 0.00000E+00
 -1       224 2.61431E+01 5.80644E+00 0.00000E+00
 -1       225 2.78383E+01 4.61493E+00 0.00000E+00
 -1       226 3.20040E+00 2.93878E+01 0.00000E+00
 -1       227 2.09343E+00 2.76883E+01 0.00000E+00
 -1       228 3.07988E+00 2.71340E+01 0.00000E+00
 -1       229 1.06680E+00 2.84226E+01 0.00000E+00
 -1       230 1.02663E+00 2.58087E+01 0.00000E+00
 -1       231 1.12488E+00 2.32014E+01 0.00000E+00
 -1       232 2.15151E+00 2.52611E+01 0.00000E+00
 -1       233 3.37465E+00 2.49003E+01 0.00000E+00
 -1       234 3.40364E+00 7.06419E+00 0.00000E+00
 -1       235 2.64079E+00 5.84624E+00 0.00000E+00
 -1       236 3.80597E+00 5.58576E+00 0.00000E+00
 -1       237 4.56883E+00 6.80370E+00 0.00000E+00
 -1       238 1.13455E+00 6.08006E+00 0.00000E+00
 -1       239 7.12744E-01 4.88878E+00 0.00000E+00
 -1       240 2.21898E+00 4.65495E+00 0.00000E+00
 -1       241 2.13823E+00 3.49033E+00 0.00000E+00
 -1       242 3.30342E+00 3.22985E+00 0.00000E+00
 -1       243 3.38417E+00 4.39447E+00 0.00000E+00
 -1       244 4.20830E+00 4.10733E+00 0.00000E+00
 -1       245 4.63011E+00 5.29861E+00 0.00000E+00
 -1       246 5.63445E+00 7.75397E+00 0.00000E+00
 -1       247 6.66433E+00 9.13032E+00 0.00000E+00
 -1       248 5.48626E+00 9.92091E+00 0.00000E+00
 -1       249 4.45638E+00 8.54456E+00 0.00000E+00
 -1       250 7.82697E+00 8.14943E+00 0.00000E+00
 -1       251 8.87227E+00 9.71609E+00 0.00000E+00
 -1       252 7.70963E+00 1.06970E+01 0.00000E+00
 -1       253 8.77035E+00 1.24539E+01 0.00000E+00
 -1       254 7.59228E+00 1.32445E+01 0.00000E+00
 -1       255 6.53156E+00 1.14876E+01 0.00000E+00
 -1       256 5.33807E+00 1.20878E+01 0.00000E+00
 -1       257 4.29277E+00 1.05212E+01 0.00000E+00
 -1       258 2.11710E+01 5.71966E+00 0.00000E+00
 -1       259 2.11137E+01 8.46915E+00 0.00000E+00
 -1       260 1.86129E+01 7.97635E+00 0.00000E+00
 -1       261 1.86702E+01 5.22686E+00 0.00000E+00
 -1       262 2.35843E+01 9.38090E+00 0.00000E+00
 -1       263 2.10866E+01 1.07997E+01 0.00000E+00
 -1       264 1.86268E+01 1.23059E+01 0.00000E+00
 -1       265 1.85984E+01 1.03360E+01 0.00000E+00
 -1       266 1.60674E+01 1.02622E+01 0.00000E+00
 -1       267 1.60818E+01 7.90251E+00 0.00000E+00
 -1       268 3.28093E+00 9.24515E+00 0.00000E+00
 -1       269 2.22819E+00 7.76478E+00 0.00000E+00
 -1       270 3.15822E+00 1.14261E+01 0.00000E+00
 -1       271 2.14638E+00 1.01501E+01 0.00000E+00
 -1       272 1.05274E+00 1.12594E+01 0.00000E+00
 -1       273 1.09364E+00 8.66972E+00 0.00000E+00
 -1       274 3.90692E+00 1.25056E+01 0.00000E+00
 -1       275 2.70216E+00 1.36188E+01 0.00000E+00
 -1       276 1.95346E+00 1.25393E+01 0.00000E+00
 -1       277 3.29883E+00 1.44979E+01 0.00000E+00
 -1       278 2.24609E+00 1.58115E+01 0.00000E+00
 -1       279 1.64942E+00 1.49324E+01 0.00000E+00
 -1       280 7.48697E-01 1.64465E+01 0.00000E+00
 -1       281 9.00718E-01 1.38529E+01 0.00000E+00
 -1       282 6.22164E+00 2.12433E+01 0.00000E+00
 -1       283 6.74685E+00 1.92638E+01 0.00000E+00
 -1       284 8.26172E+00 1.94260E+01 0.00000E+00
 -1       285 5.25373E+00 1.92290E+01 0.00000E+00
 -1       286 5.75718E+00 1.71221E+01 0.00000E+00
 -1       287 7.25029E+00 1.71569E+01 0.00000E+00
 -1       288 7.73199E+00 1.49226E+01 0.00000E+00
 -1       289 9.25253E+00 1.50933E+01 0.00000E+00
 -1       290 8.77084E+00 1.73276E+01 0.00000E+00
 -1       291 1.03188E+01 1.76341E+01 0.00000E+00
 -1       292 9.70571E-01 1.88830E+01 0.00000E+00
 -1       293 2.16301E+00 1.92474E+01 0.00000E+00
 -1       294 1.19244E+00 2.13195E+01 0.00000E+00
 -1       295 1.71927E+00 1.71685E+01 0.00000E+00
 -1       296 3.43853E+00 1.61760E+01 0.00000E+00
 -1       297 2.91171E+00 1.75329E+01 0.00000E+00
 -1       298 4.32603E+00 1.75399E+01 0.00000E+00
 -1       299 3.57733E+00 1.92544E+01 0.00000E+00
 -1       300 9.80138E+00 1.36507E+01 0.00000E+00
 -1       301 1.14158E+01 1.44463E+01 0.00000E+00
 -1       302 1.08670E+01 1.58889E+01 0.00000E+00
 -1       303 1.19654E+01 1.33063E+01 0.00000E+00
 -1       304 1.35970E+01 1.38255E+01 0.00000E+00
 -1       305 1.30475E+01 1.49656E+01 0.00000E+00
 -1       306 1.46964E+01 1.52084E+01 0.00000E+00
 -1       307 1.24807E+01 1.63819E+01 0.00000E+00
 -1       308 1.34824E+01 1.21606E+01 0.00000E+00
 -1       309 1.48245E+01 1.20300E+01 0.00000E+00
 -1       310 1.49391E+01 1.36948E+01 0.00000E+00
 -1       311 1.43526E+01 1.02138E+01 0.00000E+00
 -1       312 1.65393E+01 1.20784E+01 0.00000E+00
 -1       313 1.66386E+01 1.37154E+01 0.00000E+00
 -1       314 6.46883E+00 6.98924E+00 0.00000E+00
 -1       315 7.01068E+00 6.01458E+00 0.00000E+00
 -1       316 5.40320E+00 6.03896E+00 0.00000E+00
 -1       317 5.17196E+00 4.32395E+00 0.00000E+00
 -1       318 5.94506E+00 5.06430E+00 0.00000E+00
 -1       319 6.19439E+00 3.87972E+00 0.00000E+00
 -1       320 5.81945E+00 1.37141E+01 0.00000E+00
 -1       321 4.38830E+00 1.41319E+01 0.00000E+00
 -1       322 5.95916E+00 1.53922E+01 0.00000E+00
 -1       323 4.52801E+00 1.58100E+01 0.00000E+00
 -1       324 5.19025E+00 3.65386E+00 0.00000E+00
 -1       325 5.16807E+00 2.97455E+00 0.00000E+00
 -1       326 4.22659E+00 3.43724E+00 0.00000E+00
 -1       327 3.28123E+00 2.55053E+00 0.00000E+00
 -1       328 4.20441E+00 2.75792E+00 0.00000E+00
 -1       329 4.14174E+00 2.06938E+00 0.00000E+00
 -1       330 1.26435E+01 1.11617E+01 0.00000E+00
 -1       331 1.16124E+01 9.96493E+00 0.00000E+00
 -1       332 1.11264E+01 1.23073E+01 0.00000E+00
 -1       333 1.00954E+01 1.11106E+01 0.00000E+00
 -1       334 3.24082E+00 1.73247E+00 0.00000E+00
 -1       335 3.13767E+00 1.03469E+00 0.00000E+00
 -1       336 2.44303E+00 2.09333E+00 0.00000E+00
 -1       337 2.40262E+00 1.27526E+00 0.00000E+00
 -1       338 1.62714E+00 6.97777E-01 0.00000E+00
 -1       339 2.29947E+00 5.77488E-01 0.00000E+00
 -1       340 3.26709E+01 5.27218E+00 0.00000E+00
 -1       341 3.17055E+01 5.26311E+00 0.00000E+00
 -1       342 3.21184E+01 4.68186E+00 0.00000E+00
 -1       343 3.30838E+01 4.69092E+00 0.00000E+00
 -1       344 3.19381E+01 6.05439E+00 0.00000E+00
 -1       345 3.00946E+01 5.04403E+00 0.00000E+00
 -1       346 3.05075E+01 4.46278E+00 0.00000E+00
 -1       347 3.31767E+01 4.31062E+00 0.00000E+00
 -1       348 3.29914E+01 5.55226E+00 0.00000E+00
 -1       349 3.34951E+01 5.90349E+00 0.00000E+00
 -1       350 3.24418E+01 6.40562E+00 0.00000E+00
 -1       351 3.35410E+01 4.69890E+00 0.00000E+00
 -1       352 3.38615E+01 4.97898E+00 0.00000E+00
 -1       353 3.45483E+01 4.33456E+00 0.00000E+00
 -1       354 3.43651E+01 5.33021E+00 0.00000E+00
 -1       355 3.41819E+01 6.32586E+00 0.00000E+00
 -1       356 3.39639E+01 7.50108E+00 0.00000E+00
 -1       357 3.30938E+01 7.00756E+00 0.00000E+00
 -1       358 3.26577E+01 8.29120E+00 0.00000E+00
 -1       359 3.17945E+01 7.82868E+00 0.00000E+00
 -1       360 4.81107E+00 2.11553E+01 0.00000E+00
 -1       361 3.13467E+00 2.11807E+01 0.00000E+00
 -1       362 4.63423E+00 2.29684E+01 0.00000E+00
 -1       363 3.06711E+00 2.30627E+01 0.00000E+00
 -1       364 5.08772E-01 2.44439E+00 0.00000E+00
 -1       365 1.22152E+00 3.14216E+00 0.00000E+00
 -1       366 8.13572E-01 1.04739E+00 0.00000E+00
 -1       367 1.52632E+00 1.74516E+00 0.00000E+00
 -1       368 2.35311E+01 5.15766E+00 0.00000E+00
 -1       369 2.30803E+01 6.95936E+00 0.00000E+00
 -1       370 2.47377E+01 6.98829E+00 0.00000E+00
 -1       371 1.63394E+01 4.73270E+00 0.00000E+00
 -1       372 1.50452E+01 6.07053E+00 0.00000E+00
 -1       373 1.67025E+01 6.09946E+00 0.00000E+00
 -1       374 3.43352E+01 4.26719E+00 0.00000E+00
 -1       375 3.38316E+01 4.44936E+00 0.00000E+00
 -1       376 3.38625E+01 4.32259E+00 0.00000E+00
 -1       377 3.40602E+01 4.45335E+00 0.00000E+00
 -1       378 3.33124E+01 4.69491E+00 0.00000E+00
 -1       379 3.32982E+01 4.44005E+00 0.00000E+00
 -1       380 3.35268E+01 4.44404E+00 0.00000E+00
 -1       381 3.35732E+01 4.25388E+00 0.00000E+00
 -1       382 1.82880E+00 3.21564E+01 0.00000E+00
 -1       383 1.01600E+00 3.18347E+01 0.00000E+00
 -1       384 1.01600E+00 3.04377E+01 0.00000E+00
 -1       385 1.82880E+00 3.07594E+01 0.00000E+00
 -1       386 6.09600E-01 3.30708E+01 0.00000E+00
 -1       387 4.06400E-01 3.08949E+01 0.00000E+00
 -1       388 6.09600E-01 2.88798E+01 0.00000E+00
 -1       389 2.18440E+00 2.93709E+01 0.00000E+00
 -1       390 1.72720E+00 2.98281E+01 0.00000E+00
 -1       391 2.79400E+00 3.03107E+01 0.00000E+00
 -1       392 5.33400E-01 3.32232E+01 0.00000E+00
 -1       393 1.14300E+00 3.27660E+01 0.00000E+00
 -1       394 8.38200E-01 3.30708E+01 0.00000E+00
 -1       395 1.06680E+00 3.27660E+01 0.00000E+00
 -1       396 1.90500E+00 3.21564E+01 0.00000E+00
 -1       397 1.32080E+00 3.27660E+01 0.00000E+00
 -1       398 1.24460E+00 3.27660E+01 0.00000E+00
 -1       399 7.87400E-01 3.32232E+01 0.00000E+00
 -3
    3C                           112                                     1
 -1         1   10    0    1
 -2         3        27       148       147        34       206       207       208
 -1         2   10    0    1
 -2        27        28       138       148        35       209       210       206
 -1         3   10    0    1
 -2       148       138       130       146       210       211       212       213
 -1         4   10    0    1
 -2       147       148       146       124       207       213       214       215
 -1         5   10    0    1
 -2       126       149       151       150       216       217       218       219
 -1         6   10    0    1
 -2       149        57        58       151       220        69       221       217
 -1         7   10    0    1
 -2       151        58        59       135       221        70       222       223
 -1         8   10    0    1
 -2       150       151       135        32       218       223       224       225
 -1         9   10    0    1
 -2        10       144       153        81       226       227       228        85
 -1        10   10    0    1
 -2       144       101       102       153       229       113       230       227
 -1        11   10    0    1
 -2       153       102       103       152       230       114       231       232
 -1        12   10    0    1
 -2        81       153       152        80       228       232       233        84
 -1        13   10    0    1
 -2       132       154       158       157       234       235       236       237
 -1        14   10    0    1
 -2       154       109       155       158       238       239       240       235
 -1        15   10    0    1
 -2       158       155       125       156       240       241       242       243
 -1        16   10    0    1
 -2       157       158       156       127       236       243       244       245
 -1        17   10    0    1
 -2       132       159       163       162       246       247       248       249
 -1        18   10    0    1
 -2       159       124       160       163       250       251       252       247
 -1        19   10    0    1
 -2       163       160       123       161       252       253       254       255
 -1        20   10    0    1
 -2       162       163       161       131       248       255       256       257
 -1        21   10    0    1
 -2        30       136       165       137       258       259       260       261
 -1        22   10    0    1
 -2       136        59        60       165       262        71       263       259
 -1        23   10    0    1
 -2       165        60        61       164       263        72       264       265
 -1        24   10    0    1
 -2       137       165       164       130       260       265       266       267
 -1        25   10    0    1
 -2       132       162       167       154       249       268       269       234
 -1        26   10    0    1
 -2       162       131       166       167       257       270       271       268
 -1        27   10    0    1
 -2       167       166       107       108       271       272       119       273
 -1        28   10    0    1
 -2       154       167       108       109       269       273       120       238
 -1        29   10    0    1
 -2       131       168       170       166       274       275       276       270
 -1        30   10    0    1
 -2       168       134       169       170       277       278       279       275
 -1        31   10    0    1
 -2       170       169       105       106       279       280       117       281
 -1        32   10    0    1
 -2       166       170       106       107       276       281       118       272
 -1        33   10    0    1
 -2         8       171       174        66       282       283       284        78
 -1        34   10    0    1
 -2       171       128       172       174       285       286       287       283
 -1        35   10    0    1
 -2       174       172       123       173       287       288       289       290
 -1        36   10    0    1
 -2        66       174       173        65       284       290       291        77
 -1        37   10    0    1
 -2       103       104       177       176       115       292       293       294
 -1        38   10    0    1
 -2       104       105       169       177       116       280       295       292
 -1        39   10    0    1
 -2       177       169       134       175       295       278       296       297
 -1        40   10    0    1
 -2       176       177       175       128       293       297       298       299
 -1        41   10    0    1
 -2       123       178       180       173       300       301       302       289
 -1        42   10    0    1
 -2       178       133       179       180       303       304       305       301
 -1        43   10    0    1
 -2       180       179        63        64       305       306        75       307
 -1        44   10    0    1
 -2       173       180        64        65       302       307        76       291
 -1        45   10    0    1
 -2       133       181       182       179       308       309       310       304
 -1        46   10    0    1
 -2       181       130       164       182       311       266       312       309
 -1        47   10    0    1
 -2       182       164        61        62       312       264        73       313
 -1        48   10    0    1
 -2       179       182        62        63       310       313        74       306
 -1        49   10    0    1
 -2       124       159       184       147       250       314       315       215
 -1        50   10    0    1
 -2       159       132       157       184       246       237       316       314
 -1        51   10    0    1
 -2       184       157       127       183       316       245       317       318
 -1        52   10    0    1
 -2       147       184       183         3       315       318       319       208
 -1        53   10    0    1
 -2       131       161       185       168       256       320       321       274
 -1        54   10    0    1
 -2       161       123       172       185       254       288       322       320
 -1        55   10    0    1
 -2       185       172       128       175       322       286       298       323
 -1        56   10    0    1
 -2       168       185       175       134       321       323       296       277
 -1        57   10    0    1
 -2         3       183       187        22       319       324       325        26
 -1        58   10    0    1
 -2       183       127       156       187       317       244       326       324
 -1        59   10    0    1
 -2       187       156       125       186       326       242       327       328
 -1        60   10    0    1
 -2        22       187       186        21       325       328       329        25
 -1        61   10    0    1
 -2       130       181       188       146       311       330       331       212
 -1        62   10    0    1
 -2       181       133       178       188       308       303       332       330
 -1        63   10    0    1
 -2       188       178       123       160       332       300       253       333
 -1        64   10    0    1
 -2       146       188       160       124       331       333       251       214
 -1        65   10    0    1
 -2        21       186       190        20       329       334       335        24
 -1        66   10    0    1
 -2       186       125       189       190       327       336       337       334
 -1        67   10    0    1
 -2       190       189        14        15       337       338        18       339
 -1        68   10    0    1
 -2        20       190        15         2       335       339        19        23
 -1        69   10    0    1
 -2       129       191       192       141       340       341       342       343
 -1        70   10    0    1
 -2       191       126       150       192       344       219       345       341
 -1        71   10    0    1
 -2       192       150        32        33       345       225        40       346
 -1        72   10    0    1
 -2       141       192        33         4       342       346        41       347
 -1        73   10    0    1
 -2       126       191       194       193       344       348       349       350
 -1        74   10    0    1
 -2       191       129       139       194       340       351       352       348
 -1        75   10    0    1
 -2       194       139         5        49       352       353        52       354
 -1        76   10    0    1
 -2       193       194        49        50       349       354        53       355
 -1        77   10    0    1
 -2        50        51       195       193        54       356       357       355
 -1        78   10    0    1
 -2        51         6        56       195        55        67       358       356
 -1        79   10    0    1
 -2       195        56        57       149       358        68       220       359
 -1        80   10    0    1
 -2       193       195       149       126       357       359       216       350
 -1        81   10    0    1
 -2       128       171       196       176       285       360       361       299
 -1        82   10    0    1
 -2       171         8        79       196       282        82       362       360