
 stresses (elem, integ.pnt.,sxx,syy,szz,sxy,sxz,syz) for set EALL and time  0.1000000E+01

         1   1 -1.072053E+05 -3.016367E+05 -8.176839E+04  9.201572E+04  3.308722E-13  1.058791E-11
         1   2 -1.875239E+05 -3.322964E+05 -1.039640E+05  3.989478E+04 -1.654361E-13 -1.091878E-11
         1   3 -2.610323E+05 -3.311882E+05 -1.184441E+05  6.174648E+03  4.218621E-12  6.038418E-12
         1   4 -1.930042E+05 -2.887782E+05 -9.635647E+04  1.062782E+05  3.970467E-12  2.646978E-12
         1   5 -2.373997E+05 -3.208103E+05 -1.116420E+05  6.426033E+04  6.617445E-13  1.455838E-11
         1   6 -2.756710E+05 -3.188456E+05 -1.189033E+05  4.134143E+04  6.121137E-12 -4.963084E-12
         1   7 -2.697747E+05 -2.728153E+05 -1.085180E+05  1.182863E+05  2.646978E-12  5.293956E-12
         1   8 -2.766260E+05 -3.066144E+05 -1.166481E+05  8.692512E+04 -2.646978E-12 -1.323489E-11
         1   9 -2.781916E+05 -3.040130E+05 -1.164409E+05  7.537120E+04  8.933551E-12 -1.191140E-11
         1  10 -1.072053E+05 -3.016367E+05 -8.176839E+04  9.201572E+04 -1.654361E-13  0.000000E+00
         1  11 -1.875239E+05 -3.322964E+05 -1.039640E+05  3.989478E+04  1.654361E-13 -3.308722E-13
         1  12 -2.610323E+05 -3.311882E+05 -1.184441E+05  6.174648E+03  2.688337E-13  8.271806E-14
         1  13 -1.930042E+05 -2.887782E+05 -9.635647E+04  1.062782E+05 -6.617445E-13 -2.646978E-12
         1  14 -2.373997E+05 -3.208103E+05 -1.116420E+05  6.426033E+04  0.000000E+00 -1.323489E-12
         1  15 -2.756710E+05 -3.188456E+05 -1.189033E+05  4.134143E+04 -4.963084E-13  0.000000E+00
         1  16 -2.697747E+05 -2.728153E+05 -1.085180E+05  1.182863E+05  4.963084E-13  6.617445E-13
         1  17 -2.766260E+05 -3.066144E+05 -1.166481E+05  8.692512E+04  4.963084E-13  4.301339E-12
         1  18 -2.781916E+05 -3.040130E+05 -1.164409E+05  7.537120E+04  5.169879E-13  8.271806E-14
         1  19 -1.072053E+05 -3.016367E+05 -8.176839E+04  9.201572E+04 -3.308722E-13 -5.293956E-12
         1  20 -1.875239E+05 -3.322964E+05 -1.039640E+05  3.989478E+04 -2.481542E-12 -4.963084E-12
         1  21 -2.610323E+05 -3.311882E+05 -1.184441E+05  6.174648E+03 -1.571643E-12  4.549493E-12
         1  22 -1.930042E+05 -2.887782E+05 -9.635647E+04  1.062782E+05 -1.323489E-12  1.852885E-11
         1  23 -2.373997E+05 -3.208103E+05 -1.116420E+05  6.426033E+04 -6.617445E-13 -3.970467E-12
         1  24 -2.756710E+05 -3.188456E+05 -1.189033E+05  4.134143E+04 -3.474159E-12 -5.624828E-12
         1  25 -2.697747E+05 -2.728153E+05 -1.085180E+05  1.182863E+05  0.000000E+00 -5.293956E-12
         1  26 -2.766260E+05 -3.066144E+05 -1.166481E+05  8.692512E+04 -2.646978E-12 -7.940934E-12
         1  27 -2.781916E+05 -3.040130E+05 -1.164409E+05  7.537120E+04 -8.933551E-12  1.720536E-11
         2   1 -2.645059E+05 -3.269275E+05 -1.182867E+05  6.114479E+03  6.286573E-12  3.970467E-12
         2   2 -2.701783E+05 -3.157395E+05 -1.171836E+05  6.342994E+03  5.293956E-12 -1.654361E-12
         2   3 -2.744399E+05 -2.989075E+05 -1.146695E+05  6.523631E+03  4.301339E-12  1.571643E-12
         2   4 -2.677762E+05 -3.110496E+05 -1.157652E+05  3.827452E+04  0.000000E+00  5.293956E-12
         2   5 -2.738778E+05 -3.059001E+05 -1.159556E+05  3.425849E+04 -3.308722E-12 -2.646978E-12
         2   6 -2.784433E+05 -2.944230E+05 -1.145733E+05  3.050924E+04 -1.488925E-12  6.286573E-12
         2   7 -2.869766E+05 -2.977401E+05 -1.169433E+05  7.095724E+04  1.058791E-11 -1.588187E-11
         2   8 -2.926701E+05 -2.987448E+05 -1.182830E+05  6.257520E+04  6.617445E-12 -1.058791E-11
         2   9 -2.967456E+05 -2.926891E+05 -1.178869E+05  5.480134E+04  8.933551E-12  0.000000E+00
         2  10 -2.645059E+05 -3.269275E+05 -1.182867E+05  6.114479E+03 -3.308722E-13 -6.617445E-13
         2  11 -2.701783E+05 -3.157395E+05 -1.171836E+05  6.342994E+03  4.963084E-13  0.000000E+00
         2  12 -2.744399E+05 -2.989075E+05 -1.146695E+05  6.523631E+03 -1.654361E-13  2.067952E-12
         2  13 -2.677762E+05 -3.110496E+05 -1.157652E+05  3.827452E+04  1.323489E-12  0.000000E+00
         2  14 -2.738778E+05 -3.059001E+05 -1.159556E+05  3.425849E+04  6.617445E-13  0.000000E+00
         2  15 -2.784433E+05 -2.944230E+05 -1.145733E+05  3.050924E+04  0.000000E+00 -3.308722E-13
         2  16 -2.869766E+05 -2.977401E+05 -1.169433E+05  7.095724E+04 -1.323489E-12  1.985233E-12
         2  17 -2.926701E+05 -2.987448E+05 -1.182830E+05  6.257520E+04 -6.617445E-13  0.000000E+00
         2  18 -2.967456E+05 -2.926891E+05 -1.178869E+05  5.480134E+04  4.549493E-13  2.233388E-12
         2  19 -2.645059E+05 -3.269275E+05 -1.182867E+05  6.114479E+03 -3.639595E-12 -3.970467E-12
         2  20 -2.701783E+05 -3.157395E+05 -1.171836E+05  6.342994E+03 -2.646978E-12 -8.933551E-12
         2  21 -2.744399E+05 -2.989075E+05 -1.146695E+05  6.523631E+03  9.926167E-13  9.016269E-12
         2  22 -2.677762E+05 -3.110496E+05 -1.157652E+05  3.827452E+04  0.000000E+00 -5.293956E-12
         2  23 -2.738778E+05 -3.059001E+05 -1.159556E+05  3.425849E+04  3.308722E-12  2.646978E-12
         2  24 -2.784433E+05 -2.944230E+05 -1.145733E+05  3.050924E+04 -9.098987E-12  1.488925E-11
         2  25 -2.869766E+05 -2.977401E+05 -1.169433E+05  7.095724E+04 -5.293956E-12  5.293956E-12
         2  26 -2.926701E+05 -2.987448E+05 -1.182830E+05  6.257520E+04 -6.617445E-12  1.058791E-11
         2  27 -2.967456E+05 -2.926891E+05 -1.178869E+05  5.480134E+04 -3.639595E-12  0.000000E+00
         3   1 -3.013104E+05 -2.997407E+05 -1.202102E+05  7.735349E+04  0.000000E+00 -1.257315E-11
         3   2 -3.052951E+05 -2.944995E+05 -1.199589E+05  7.356710E+04  1.654361E-12 -6.617445E-12
         3   3 -3.085349E+05 -2.853419E+05 -1.187754E+05  7.070873E+04  1.654361E-13  1.571643E-12
         3   4 -3.217081E+05 -2.909620E+05 -1.225340E+05  9.680062E+04 -2.646978E-12 -1.852885E-11
         3   5 -3.241780E+05 -2.886018E+05 -1.225559E+05  9.365315E+04 -9.264423E-12  2.646978E-12
         3   6 -3.258998E+05 -2.819061E+05 -1.215612E+05  9.147837E+04  1.654361E-12  1.588187E-11
         3   7 -3.451139E+05 -2.821352E+05 -1.254498E+05  1.157555E+05  0.000000E+00 -5.293956E-12
         3   8 -3.458664E+05 -2.828094E+05 -1.257352E+05  1.133212E+05  1.588187E-11 -7.940934E-12
         3   9 -3.458809E+05 -2.786910E+05 -1.249144E+05  1.119022E+05  1.522012E-11 -9.264423E-12
         3  10 -3.013104E+05 -2.997407E+05 -1.202102E+05  7.735349E+04  6.617445E-13  0.000000E+00
         3  11 -3.052951E+05 -2.944995E+05 -1.199589E+05  7.356710E+04  3.308722E-13 -3.308722E-12
         3  12 -3.085349E+05 -2.853419E+05 -1.187754E+05  7.070873E+04 -1.571643E-12  1.240771E-12
         3  13 -3.217081E+05 -2.909620E+05 -1.225340E+05  9.680062E+04 -1.323489E-12  0.000000E+00
         3  14 -3.241780E+05 -2.886018E+05 -1.225559E+05  9.365315E+04  0.000000E+00 -1.323489E-12
         3  15 -3.258998E+05 -2.819061E+05 -1.215612E+05  9.147837E+04  2.646978E-12 -3.308722E-12
         3  16 -3.451139E+05 -2.821352E+05 -1.254498E+05  1.157555E+05  0.000000E+00  2.646978E-12
         3  17 -3.458664E+05 -2.828094E+05 -1.257352E+05  1.133212E+05 -1.654361E-12 -3.308722E-12
         3  18 -3.458809E+05 -2.786910E+05 -1.249144E+05  1.119022E+05 -9.926167E-13 -2.481542E-13
         3  19 -3.013104E+05 -2.997407E+05 -1.202102E+05  7.735349E+04 -7.940934E-12  1.257315E-11
         3  20 -3.052951E+05 -2.944995E+05 -1.199589E+05  7.356710E+04 -1.654361E-12  6.617445E-12
         3  21 -3.085349E+05 -2.853419E+05 -1.187754E+05  7.070873E+04 -1.654361E-13 -1.571643E-12
         3  22 -3.217081E+05 -2.909620E+05 -1.225340E+05  9.680062E+04 -2.646978E-12  7.940934E-12
         3  23 -3.241780E+05 -2.886018E+05 -1.225559E+05  9.365315E+04 -1.323489E-12 -2.646978E-12
         3  24 -3.258998E+05 -2.819061E+05 -1.215612E+05  9.147837E+04 -1.654361E-12  5.293956E-12
         3  25 -3.451139E+05 -2.821352E+05 -1.254498E+05  1.157555E+05  0.000000E+00  1.588187E-11
         3  26 -3.458664E+05 -2.828094E+05 -1.257352E+05  1.133212E+05 -1.058791E-11  7.940934E-12
         3  27 -3.458809E+05 -2.786910E+05 -1.249144E+05  1.119022E+05 -1.522012E-11  9.264423E-12
         4   1 -2.997064E+05 -2.710214E+05 -1.141456E+05  1.202366E+05  3.639595E-12  1.985233E-12
         4   2 -2.937265E+05 -2.889332E+05 -1.165319E+05  1.030368E+05  8.271806E-12 -4.301339E-12
         4   3 -2.857033E+05 -2.986595E+05 -1.168726E+05  8.557963E+04 -1.406207E-12 -8.106370E-12
         4   4 -3.276535E+05 -2.661146E+05 -1.187536E+05  1.265837E+05  7.940934E-12  2.646978E-12
         4   5 -3.232365E+05 -2.819372E+05 -1.210347E+05  1.144329E+05 -2.646978E-12  9.264423E-12
         4   6 -3.166367E+05 -2.892791E+05 -1.211832E+05  1.016990E+05  9.926167E-13  3.308722E-13
         4   7 -3.518714E+05 -2.618317E+05 -1.227406E+05  1.335719E+05  7.940934E-12 -5.293956E-12
         4   8 -3.495538E+05 -2.756037E+05 -1.250315E+05  1.266797E+05 -7.940934E-12 -1.852885E-11
         4   9 -3.448651E+05 -2.805752E+05 -1.250881E+05  1.188398E+05  6.617445E-13 -3.970467E-12
         4  10 -2.997064E+05 -2.710214E+05 -1.141456E+05  1.202366E+05 -3.308722E-13  6.617445E-13
         4  11 -2.937265E+05 -2.889332E+05 -1.165319E+05  1.030368E+05  1.654361E-13 -9.926167E-13
         4  12 -2.857033E+05 -2.986595E+05 -1.168726E+05  8.557963E+04  5.790264E-13 -1.654361E-13
         4  13 -3.276535E+05 -2.661146E+05 -1.187536E+05  1.265837E+05 -6.617445E-13  0.000000E+00
         4  14 -3.232365E+05 -2.819372E+05 -1.210347E+05  1.144329E+05  0.000000E+00  6.617445E-13
         4  15 -3.166367E+05 -2.892791E+05 -1.211832E+05  1.016990E+05 -8.271806E-13  1.488925E-12
         4  16 -3.518714E+05 -2.618317E+05 -1.227406E+05  1.335719E+05  0.000000E+00 -1.985233E-12
         4  17 -3.495538E+05 -2.756037E+05 -1.250315E+05  1.266797E+05 -1.654361E-13 -9.926167E-13
         4  18 -3.448651E+05 -2.805752E+05 -1.250881E+05  1.188398E+05 -1.654361E-13 -1.654361E-13
         4  19 -2.997064E+05 -2.710214E+05 -1.141456E+05  1.202366E+05 -3.639595E-12 -7.279189E-12
         4  20 -2.937265E+05 -2.889332E+05 -1.165319E+05  1.030368E+05 -2.977850E-12  4.301339E-12
         4  21 -2.857033E+05 -2.986595E+05 -1.168726E+05  8.557963E+04 -3.887749E-12 -2.481542E-12
         4  22 -3.276535E+05 -2.661146E+05 -1.187536E+05  1.265837E+05 -2.646978E-12  7.940934E-12
         4  23 -3.232365E+05 -2.819372E+05 -1.210347E+05  1.144329E+05  2.646978E-12  1.323489E-12
         4  24 -3.166367E+05 -2.892791E+05 -1.211832E+05  1.016990E+05 -1.158053E-11  1.555100E-11
         4  25 -3.518714E+05 -2.618317E+05 -1.227406E+05  1.335719E+05 -7.940934E-12  0.000000E+00
         4  26 -3.495538E+05 -2.756037E+05 -1.250315E+05  1.266797E+05 -2.646978E-12 -2.646978E-12
         4  27 -3.448651E+05 -2.805752E+05 -1.250881E+05  1.188398E+05 -5.955700E-12  1.455838E-11
         5   1 -1.808825E+05 -1.172711E+05 -5.963073E+04  4.671889E+03 -5.293956E-12 -1.588187E-11
         5   2 -1.846019E+05 -1.165086E+05 -6.022210E+04  8.812560E+03  1.389663E-11  6.352747E-11
         5   3 -1.887908E+05 -1.156376E+05 -6.088568E+04  1.302635E+04  6.038418E-12 -3.044025E-11
         5   4 -1.995236E+05 -1.260013E+05 -6.510497E+04  6.191638E+03  2.646978E-12  3.176374E-11
         5   5 -2.023446E+05 -1.240976E+05 -6.528842E+04  1.225832E+04  1.191140E-11 -3.705769E-11
         5   6 -2.050203E+05 -1.218679E+05 -6.537762E+04  1.860860E+04  8.933551E-12 -1.720536E-11
         5   7 -2.186492E+05 -1.369914E+05 -7.112812E+04  8.019636E+03  0.000000E+00 -2.117582E-11
         5   8 -2.205181E+05 -1.342774E+05 -7.095911E+04  1.569224E+04 -1.323489E-11 -2.117582E-11
         5   9 -2.218067E+05 -1.311171E+05 -7.058478E+04  2.376481E+04  7.940934E-12 -1.058791E-11
         5  10 -1.808825E+05 -1.172711E+05 -5.963073E+04  4.671889E+03  1.985233E-12  0.000000E+00
         5  11 -1.846019E+05 -1.165086E+05 -6.022210E+04  8.812560E+03  6.617445E-13  1.058791E-11
         5  12 -1.887908E+05 -1.156376E+05 -6.088568E+04  1.302635E+04  9.926167E-13 -1.323489E-12
         5  13 -1.995236E+05 -1.260013E+05 -6.510497E+04  6.191638E+03  2.646978E-12  5.293956E-12
         5  14 -2.023446E+05 -1.240976E+05 -6.528842E+04  1.225832E+04 -5.293956E-12  5.293956E-12
         5  15 -2.050203E+05 -1.218679E+05 -6.537762E+04  1.860860E+04  4.632211E-12 -1.985233E-12
         5  16 -2.186492E+05 -1.369914E+05 -7.112812E+04  8.019636E+03 -1.985233E-12 -7.940934E-12
         5  17 -2.205181E+05 -1.342774E+05 -7.095911E+04  1.569224E+04 -1.323489E-12  1.191140E-11
         5  18 -2.218067E+05 -1.311171E+05 -7.058478E+04  2.376481E+04  2.646978E-12 -1.654361E-12
         5  19 -1.808825E+05 -1.172711E+05 -5.963073E+04  4.671889E+03  1.588187E-11  3.705769E-11
         5  20 -1.846019E+05 -1.165086E+05 -6.022210E+04  8.812560E+03 -3.308722E-12 -2.117582E-11
         5  21 -1.887908E+05 -1.156376E+05 -6.088568E+04  1.302635E+04 -6.038418E-12  5.161607E-11
         5  22 -1.995236E+05 -1.260013E+05 -6.510497E+04  6.191638E+03 -2.382280E-11  1.058791E-11
         5  23 -2.023446E+05 -1.240976E+05 -6.528842E+04  1.225832E+04 -1.323489E-12 -5.293956E-12
         5  24 -2.050203E+05 -1.218679E+05 -6.537762E+04  1.860860E+04  1.654361E-12  1.720536E-11
         5  25 -2.186492E+05 -1.369914E+05 -7.112812E+04  8.019636E+03  0.000000E+00  2.117582E-11
         5  26 -2.205181E+05 -1.342774E+05 -7.095911E+04  1.569224E+04 -2.911676E-11  0.000000E+00
         5  27 -2.218067E+05 -1.311171E+05 -7.058478E+04  2.376481E+04 -7.940934E-12  1.058791E-11
         6   1 -1.910468E+05 -1.146299E+05 -6.113533E+04  1.602637E+04  1.323489E-12 -5.293956E-12
         6   2 -1.937195E+05 -1.119265E+05 -6.112920E+04  2.089039E+04  9.264423E-12 -3.705769E-11
         6   3 -1.960140E+05 -1.095713E+05 -6.111707E+04  2.550877E+04 -2.142398E-11 -2.680065E-11
         6   4 -2.075743E+05 -1.212202E+05 -6.575889E+04  2.279927E+04  5.293956E-12 -1.058791E-11
         6   5 -2.118302E+05 -1.167089E+05 -6.570781E+04  2.818793E+04 -5.293956E-12 -1.588187E-11
         6   6 -2.156494E+05 -1.121027E+05 -6.555042E+04  3.363436E+04 -3.970467E-12  5.293956E-12
         6   7 -2.245075E+05 -1.289411E+05 -7.068972E+04  3.048277E+04  1.058791E-11 -2.117582E-11
         6   8 -2.302663E+05 -1.233986E+05 -7.073298E+04  3.640546E+04  5.293956E-12 -1.058791E-11
         6   9 -2.355485E+05 -1.175244E+05 -7.061459E+04  4.261863E+04  5.955700E-12  1.058791E-11
         6  10 -1.910468E+05 -1.146299E+05 -6.113533E+04  1.602637E+04  1.323489E-12  2.646978E-12
         6  11 -1.937195E+05 -1.119265E+05 -6.112920E+04  2.089039E+04 -1.985233E-12  1.323489E-12
         6  12 -1.960140E+05 -1.095713E+05 -6.111707E+04  2.550877E+04  1.819797E-12  2.977850E-12
         6  13 -2.075743E+05 -1.212202E+05 -6.575889E+04  2.279927E+04  2.646978E-12 -1.058791E-11
         6  14 -2.118302E+05 -1.167089E+05 -6.570781E+04  2.818793E+04 -2.646978E-12 -1.588187E-11
         6  15 -2.156494E+05 -1.121027E+05 -6.555042E+04  3.363436E+04  4.301339E-12  1.522012E-11
         6  16 -2.245075E+05 -1.289411E+05 -7.068972E+04  3.048277E+04 -1.323489E-12  5.293956E-12
         6  17 -2.302663E+05 -1.233986E+05 -7.073298E+04  3.640546E+04 -3.308722E-12 -1.323489E-12
         6  18 -2.355485E+05 -1.175244E+05 -7.061459E+04  4.261863E+04 -1.158053E-12  1.985233E-12
         6  19 -1.910468E+05 -1.146299E+05 -6.113533E+04  1.602637E+04 -1.323489E-12 -1.588187E-11
         6  20 -1.937195E+05 -1.119265E+05 -6.112920E+04  2.089039E+04 -9.264423E-12  3.705769E-11
         6  21 -1.960140E+05 -1.095713E+05 -6.111707E+04  2.550877E+04  2.481542E-13  4.797648E-11
         6  22 -2.075743E+05 -1.212202E+05 -6.575889E+04  2.279927E+04  5.293956E-12  1.058791E-11
         6  23 -2.118302E+05 -1.167089E+05 -6.570781E+04  2.818793E+04  1.588187E-11 -2.646978E-11
         6  24 -2.156494E+05 -1.121027E+05 -6.555042E+04  3.363436E+04 -6.617445E-12  3.705769E-11
         6  25 -2.245075E+05 -1.289411E+05 -7.068972E+04  3.048277E+04 -1.058791E-11  0.000000E+00
         6  26 -2.302663E+05 -1.233986E+05 -7.073298E+04  3.640546E+04 -5.293956E-12 -1.058791E-11
         6  27 -2.355485E+05 -1.175244E+05 -7.061459E+04  4.261863E+04 -1.654361E-11  1.058791E-11
         7   1 -2.364670E+05 -1.342617E+05 -7.414574E+04  3.447141E+04  7.940934E-12 -3.176374E-11
         7   2 -2.388697E+05 -1.265504E+05 -7.308403E+04  4.244499E+04  1.323489E-11 -1.323489E-11
         7   3 -2.498042E+05 -1.213063E+05 -7.422209E+04  4.895868E+04  2.812414E-12  2.779327E-11
         7   4 -2.490513E+05 -1.435462E+05 -7.851950E+04  4.116208E+04 -1.323489E-11  4.235165E-11
         7   5 -2.577420E+05 -1.352255E+05 -7.859351E+04  5.178298E+04  0.000000E+00  5.293956E-12
         7   6 -2.728074E+05 -1.285076E+05 -8.026300E+04  6.168884E+04  9.264423E-12 -6.088049E-11
         7   7 -2.617721E+05 -1.529449E+05 -8.294339E+04  4.990440E+04  1.058791E-11  0.000000E+00
         7   8 -2.761457E+05 -1.444636E+05 -8.412187E+04  6.272373E+04 -5.293956E-12  0.000000E+00
         7   9 -2.951008E+05 -1.369209E+05 -8.640434E+04  7.541091E+04  1.455838E-11  1.058791E-11
         7  10 -2.364670E+05 -1.342617E+05 -7.414574E+04  3.447141E+04  0.000000E+00  2.646978E-12
         7  11 -2.388697E+05 -1.265504E+05 -7.308403E+04  4.244499E+04  4.632211E-12  2.646978E-12
         7  12 -2.498042E+05 -1.213063E+05 -7.422209E+04  4.895868E+04  1.654361E-13  2.646978E-12
         7  13 -2.490513E+05 -1.435462E+05 -7.851950E+04  4.116208E+04  0.000000E+00 -1.058791E-11
         7  14 -2.577420E+05 -1.352255E+05 -7.859351E+04  5.178298E+04  1.323489E-12  2.646978E-12
         7  15 -2.728074E+05 -1.285076E+05 -8.026300E+04  6.168884E+04 -1.985233E-12 -7.279189E-12
         7  16 -2.617721E+05 -1.529449E+05 -8.294339E+04  4.990440E+04  0.000000E+00  0.000000E+00
         7  17 -2.761457E+05 -1.444636E+05 -8.412187E+04  6.272373E+04 -1.323489E-12 -3.970467E-12
         7  18 -2.951008E+05 -1.369209E+05 -8.640434E+04  7.541091E+04  1.654361E-13  1.323489E-12
         7  19 -2.364670E+05 -1.342617E+05 -7.414574E+04  3.447141E+04 -1.852885E-11  3.176374E-11
         7  20 -2.388697E+05 -1.265504E+05 -7.308403E+04  4.244499E+04 -2.646978E-12  3.441071E-11
         7  21 -2.498042E+05 -1.213063E+05 -7.422209E+04  4.895868E+04 -1.340033E-11 -6.617445E-12
         7  22 -2.490513E+05 -1.435462E+05 -7.851950E+04  4.116208E+04 -1.852885E-11  0.000000E+00
         7  23 -2.577420E+05 -1.352255E+05 -7.859351E+04  5.178298E+04  0.000000E+00 -2.646978E-11
         7  24 -2.728074E+05 -1.285076E+05 -8.026300E+04  6.168884E+04 -3.044025E-11  6.088049E-11
         7  25 -2.617721E+05 -1.529449E+05 -8.294339E+04  4.990440E+04 -1.058791E-11  4.235165E-11
         7  26 -2.761457E+05 -1.444636E+05 -8.412187E+04  6.272373E+04 -5.293956E-12  0.000000E+00
         7  27 -2.951008E+05 -1.369209E+05 -8.640434E+04  7.541091E+04  6.617445E-12 -3.176374E-11
         8   1 -2.289036E+05 -1.433773E+05 -7.445620E+04  8.443701E+03  8.602678E-12  1.323489E-11
         8   2 -2.260910E+05 -1.394817E+05 -7.311453E+04  1.861138E+04 -4.963084E-12 -1.323489E-11
         8   3 -2.330478E+05 -1.376080E+05 -7.413116E+04  2.804700E+04  1.555100E-11 -2.812414E-11
         8   4 -2.446468E+05 -1.542959E+05 -7.978854E+04  7.007226E+03  1.588187E-11 -2.117582E-11
         8   5 -2.419692E+05 -1.506620E+05 -7.852626E+04  2.163235E+04 -2.646978E-12  2.117582E-11
         8   6 -2.458785E+05 -1.483288E+05 -7.884146E+04  3.600443E+04  2.878589E-11  1.852885E-11
         8   7 -2.604413E+05 -1.653874E+05 -8.516576E+04  5.606540E+03  0.000000E+00  0.000000E+00
         8   8 -2.572574E+05 -1.618080E+05 -8.381308E+04  2.383107E+04  7.940934E-12  5.293956E-11
         8   9 -2.581502E+05 -1.589554E+05 -8.342112E+04  4.210572E+04  1.257315E-11 -3.970467E-11
         8  10 -2.289036E+05 -1.433773E+05 -7.445620E+04  8.443701E+03  1.985233E-12  0.000000E+00
         8  11 -2.260910E+05 -1.394817E+05 -7.311453E+04  1.861138E+04 -3.308722E-13 -6.617445E-12
         8  12 -2.330478E+05 -1.376080E+05 -7.413116E+04  2.804700E+04  7.444626E-13  7.279189E-12
         8  13 -2.446468E+05 -1.542959E+05 -7.978854E+04  7.007226E+03 -1.323489E-12 -1.058791E-11
         8  14 -2.419692E+05 -1.506620E+05 -7.852626E+04  2.163235E+04 -1.323489E-12 -1.058791E-11
         8  15 -2.458785E+05 -1.483288E+05 -7.884146E+04  3.600443E+04 -6.617445E-13 -1.985233E-12
         8  16 -2.604413E+05 -1.653874E+05 -8.516576E+04  5.606540E+03  0.000000E+00  2.646978E-12
         8  17 -2.572574E+05 -1.618080E+05 -8.381308E+04  2.383107E+04  1.654361E-12 -6.617445E-12
         8  18 -2.581502E+05 -1.589554E+05 -8.342112E+04  4.210572E+04 -4.135903E-13 -5.624828E-12
         8  19 -2.289036E+05 -1.433773E+05 -7.445620E+04  8.443701E+03 -8.602678E-12 -1.323489E-11
         8  20 -2.260910E+05 -1.394817E+05 -7.311453E+04  1.861138E+04 -5.624828E-12  1.323489E-11
         8  21 -2.330478E+05 -1.376080E+05 -7.413116E+04  2.804700E+04  5.624828E-12  2.812414E-11
         8  22 -2.446468E+05 -1.542959E+05 -7.978854E+04  7.007226E+03 -1.058791E-11  4.235165E-11
         8  23 -2.419692E+05 -1.506620E+05 -7.852626E+04  2.163235E+04 -2.646978E-12 -2.117582E-11
         8  24 -2.458785E+05 -1.483288E+05 -7.884146E+04  3.600443E+04  2.977850E-12  2.382280E-11
         8  25 -2.604413E+05 -1.653874E+05 -8.516576E+04  5.606540E+03 -5.293956E-12  0.000000E+00
         8  26 -2.572574E+05 -1.618080E+05 -8.381308E+04  2.383107E+04 -2.646978E-12  1.058791E-11
         8  27 -2.581502E+05 -1.589554E+05 -8.342112E+04  4.210572E+04 -1.257315E-11 -2.382280E-11
         9   1 -9.637553E+04 -1.089027E+05 -4.105565E+04 -3.339927E+03 -1.488925E-12  2.481542E-12
         9   2 -1.299496E+05 -1.352391E+05 -5.303774E+04  1.738678E+04  5.376674E-13  2.977850E-12
         9   3 -1.502303E+05 -1.317518E+05 -5.639642E+04  2.815964E+04 -1.313149E-12  2.590109E-12
         9   4 -1.015575E+05 -1.317423E+05 -4.665996E+04  8.910680E+02 -1.323489E-12  3.308722E-12
         9   5 -1.444474E+05 -1.516489E+05 -5.921926E+04  2.980908E+04 -3.308722E-13  4.135903E-13
         9   6 -1.753549E+05 -1.464771E+05 -6.436638E+04  4.967663E+04 -1.364848E-12  1.778438E-12
         9   7 -1.071802E+05 -1.560788E+05 -5.265179E+04  9.295634E+03 -3.308722E-12  3.639595E-12
         9   8 -1.562183E+05 -1.660407E+05 -6.445181E+04  4.376595E+04 -1.654361E-12  2.977850E-12
         9   9 -1.974071E+05 -1.597404E+05 -7.142952E+04  7.222118E+04 -2.150670E-12  3.060568E-12
         9  10 -9.637553E+04 -1.089027E+05 -4.105565E+04 -3.339927E+03 -8.271806E-14 -4.135903E-14
         9  11 -1.299496E+05 -1.352391E+05 -5.303774E+04  1.738678E+04  1.240771E-13 -3.101927E-14
         9  12 -1.502303E+05 -1.317518E+05 -5.639642E+04  2.815964E+04 -3.101927E-14  5.428373E-14
         9  13 -1.015575E+05 -1.317423E+05 -4.665996E+04  8.910680E+02  1.654361E-13  0.000000E+00
         9  14 -1.444474E+05 -1.516489E+05 -5.921926E+04  2.980908E+04  8.271806E-14  8.271806E-14
         9  15 -1.753549E+05 -1.464771E+05 -6.436638E+04  4.967663E+04  4.135903E-14  0.000000E+00
         9  16 -1.071802E+05 -1.560788E+05 -5.265179E+04  9.295634E+03  8.271806E-14  4.135903E-14
         9  17 -1.562183E+05 -1.660407E+05 -6.445181E+04  4.376595E+04  1.654361E-13 -4.135903E-14
         9  18 -1.974071E+05 -1.597404E+05 -7.142952E+04  7.222118E+04  0.000000E+00 -2.067952E-14
         9  19 -9.637553E+04 -1.089027E+05 -4.105565E+04 -3.339927E+03  1.488925E-12 -2.646978E-12
         9  20 -1.299496E+05 -1.352391E+05 -5.303774E+04  1.738678E+04 -5.376674E-13 -2.812414E-12
         9  21 -1.502303E+05 -1.317518E+05 -5.639642E+04  2.815964E+04  1.313149E-12 -2.920982E-12
         9  22 -1.015575E+05 -1.317423E+05 -4.665996E+04  8.910680E+02  1.323489E-12 -3.308722E-12
         9  23 -1.444474E+05 -1.516489E+05 -5.921926E+04  2.980908E+04  3.308722E-13 -4.135903E-13
         9  24 -1.753549E+05 -1.464771E+05 -6.436638E+04  4.967663E+04  1.364848E-12 -2.109311E-12
         9  25 -1.071802E+05 -1.560788E+05 -5.265179E+04  9.295634E+03  2.646978E-12 -3.308722E-12
         9  26 -1.562183E+05 -1.660407E+05 -6.445181E+04  4.376595E+04  1.654361E-12 -3.308722E-12
         9  27 -1.974071E+05 -1.597404E+05 -7.142952E+04  7.222118E+04  1.488925E-12 -3.722313E-12
        10   1 -1.788412E+05 -1.260531E+05 -6.097885E+04  4.275122E+04 -1.116694E-12  2.274747E-12
        10   2 -2.286462E+05 -1.085405E+05 -6.743734E+04  6.383232E+04 -1.654361E-13  1.158053E-12
        10   3 -2.706094E+05 -8.034227E+04 -7.019033E+04  7.889249E+04 -2.067952E-13  3.618915E-13
        10   4 -2.043076E+05 -1.390781E+05 -6.867714E+04  6.574184E+04 -2.316106E-12  2.316106E-12
        10   5 -2.629134E+05 -1.208270E+05 -7.674809E+04  8.740562E+04 -1.654361E-13  0.000000E+00
        10   6 -3.132725E+05 -9.183793E+04 -8.102208E+04  1.031039E+05 -2.067952E-13  3.101927E-13
        10   7 -2.449120E+05 -1.560326E+05 -8.018893E+04  9.090954E+04 -3.308722E-12  3.308722E-12
        10   8 -3.110853E+05 -1.366655E+05 -8.955016E+04  1.130285E+05 -6.617445E-13  9.926167E-13
        10   9 -3.687372E+05 -1.065498E+05 -9.505741E+04  1.292538E+05 -2.895132E-13  3.308722E-13
        10  10 -1.788412E+05 -1.260531E+05 -6.097885E+04  4.275122E+04  4.135903E-14  0.000000E+00
        10  11 -2.286462E+05 -1.085405E+05 -6.743734E+04  6.383232E+04 -4.135903E-14 -4.135903E-14
        10  12 -2.706094E+05 -8.034227E+04 -7.019033E+04  7.889249E+04 -1.033976E-14  5.169879E-15
        10  13 -2.043076E+05 -1.390781E+05 -6.867714E+04  6.574184E+04  0.000000E+00  0.000000E+00
        10  14 -2.629134E+05 -1.208270E+05 -7.674809E+04  8.740562E+04  0.000000E+00  1.240771E-13
        10  15 -3.132725E+05 -9.183793E+04 -8.102208E+04  1.031039E+05 -2.067952E-14  4.135903E-14
        10  16 -2.449120E+05 -1.560326E+05 -8.018893E+04  9.090954E+04  4.135903E-14  4.135903E-14
        10  17 -3.110853E+05 -1.366655E+05 -8.955016E+04  1.130285E+05  0.000000E+00 -8.271806E-14
        10  18 -3.687372E+05 -1.065498E+05 -9.505741E+04  1.292538E+05 -2.067952E-14  1.550964E-14
        10  19 -1.788412E+05 -1.260531E+05 -6.097885E+04  4.275122E+04  1.116694E-12 -2.274747E-12
        10  20 -2.286462E+05 -1.085405E+05 -6.743734E+04  6.383232E+04  3.308722E-13 -9.926167E-13
        10  21 -2.706094E+05 -8.034227E+04 -7.019033E+04  7.889249E+04  1.654361E-13 -3.205325E-13
        10  22 -2.043076E+05 -1.390781E+05 -6.867714E+04  6.574184E+04  9.926167E-13 -2.316106E-12
        10  23 -2.629134E+05 -1.208270E+05 -7.674809E+04  8.740562E+04  4.963084E-13  0.000000E+00
        10  24 -3.132725E+05 -9.183793E+04 -8.102208E+04  1.031039E+05  2.067952E-13 -3.101927E-13
        10  25 -2.449120E+05 -1.560326E+05 -8.018893E+04  9.090954E+04  2.646978E-12 -3.639595E-12
        10  26 -3.110853E+05 -1.366655E+05 -8.955016E+04  1.130285E+05  6.617445E-13 -1.158053E-12
        10  27 -3.687372E+05 -1.065498E+05 -9.505741E+04  1.292538E+05  4.549493E-13 -3.722313E-13
        11   1 -2.726196E+05 -1.603021E+05 -8.658435E+04  1.052193E+05 -1.819797E-12  2.398824E-12
        11   2 -3.355538E+05 -1.301045E+05 -9.313166E+04  1.216683E+05 -8.685396E-13  7.444626E-13
        11   3 -4.003582E+05 -1.093077E+05 -1.019332E+05  1.401803E+05 -2.378144E-13  1.757759E-13
        11   4 -3.267735E+05 -1.653590E+05 -9.842649E+04  1.290815E+05 -3.308722E-12  1.323489E-12
        11   5 -3.918841E+05 -1.397757E+05 -1.063320E+05  1.416046E+05  0.000000E+00  4.963084E-13
        11   6 -4.592740E+05 -1.231167E+05 -1.164781E+05  1.565037E+05 -2.895132E-13  1.654361E-13
        11   7 -3.885645E+05 -1.727770E+05 -1.122683E+05  1.501915E+05 -6.617445E-13  1.323489E-12
        11   8 -4.549427E+05 -1.513490E+05 -1.212583E+05  1.591110E+05 -6.617445E-13  3.308722E-13
        11   9 -5.240389E+05 -1.384308E+05 -1.324939E+05  1.706776E+05 -1.654361E-13  8.271806E-14
        11  10 -2.726196E+05 -1.603021E+05 -8.658435E+04  1.052193E+05 -1.654361E-13 -8.271806E-14
        11  11 -3.355538E+05 -1.301045E+05 -9.313166E+04  1.216683E+05 -1.654361E-13 -4.135903E-14
        11  12 -4.003582E+05 -1.093077E+05 -1.019332E+05  1.401803E+05 -4.135903E-14  2.067952E-14
        11  13 -3.267735E+05 -1.653590E+05 -9.842649E+04  1.290815E+05  0.000000E+00 -1.654361E-13
        11  14 -3.918841E+05 -1.397757E+05 -1.063320E+05  1.416046E+05  0.000000E+00  0.000000E+00
        11  15 -4.592740E+05 -1.231167E+05 -1.164781E+05  1.565037E+05  2.067952E-14 -6.203855E-14
        11  16 -3.885645E+05 -1.727770E+05 -1.122683E+05  1.501915E+05  0.000000E+00  0.000000E+00
        11  17 -4.549427E+05 -1.513490E+05 -1.212583E+05  1.591110E+05  0.000000E+00  4.135903E-14
        11  18 -5.240389E+05 -1.384308E+05 -1.324939E+05  1.706776E+05  1.033976E-14  0.000000E+00
        11  19 -2.726196E+05 -1.603021E+05 -8.658435E+04  1.052193E+05  2.481542E-12 -2.398824E-12
        11  20 -3.355538E+05 -1.301045E+05 -9.313166E+04  1.216683E+05  5.376674E-13 -7.444626E-13
        11  21 -4.003582E+05 -1.093077E+05 -1.019332E+05  1.401803E+05  4.032505E-13 -2.584939E-13
        11  22 -3.267735E+05 -1.653590E+05 -9.842649E+04  1.290815E+05  1.985233E-12 -1.985233E-12
        11  23 -3.918841E+05 -1.397757E+05 -1.063320E+05  1.416046E+05  0.000000E+00  1.654361E-13
        11  24 -4.592740E+05 -1.231167E+05 -1.164781E+05  1.565037E+05  3.722313E-13 -2.481542E-13
        11  25 -3.885645E+05 -1.727770E+05 -1.122683E+05  1.501915E+05  1.985233E-12 -1.323489E-12
        11  26 -4.549427E+05 -1.513490E+05 -1.212583E+05  1.591110E+05  3.308722E-13 -3.308722E-13
        11  27 -5.240389E+05 -1.384308E+05 -1.324939E+05  1.706776E+05  3.308722E-13 -8.271806E-14
        12   1 -1.017457E+05 -1.623222E+05 -5.281359E+04  1.372888E+04 -2.646978E-12  3.805031E-12
        12   2 -1.804440E+05 -1.904034E+05 -7.416949E+04  6.450096E+04 -4.301339E-12  3.101927E-12
        12   3 -2.255326E+05 -1.772216E+05 -8.055083E+04  9.251813E+04 -2.822754E-12  3.794691E-12
        12   4 -1.137535E+05 -2.053601E+05 -6.382272E+04  3.951933E+04 -4.632211E-12  3.970467E-12
        12   5 -2.073336E+05 -2.086372E+05 -8.319417E+04  8.674846E+04 -1.985233E-12  3.308722E-13