    1C
    1UUSER                                                              
    1UDATE              26.july.2016                                    
    1UTIME              13:13:25                                        
    1UHOST                                                              
    1UPGM               CalculiX                                        
    1UDIR                                                               
    1UDBN                                                               
    2C                           960                                     1
 -1         1 0.00000E+00 0.00000E+00 0.00000E+00
 -1         2 2.43840E+00 0.00000E+00 0.00000E+00
 -1         3 6.70560E+00 3.65760E+00 0.00000E+00
 -1         4 3.32232E+01 4.12047E+00 0.00000E+00
 -1         5 3.50520E+01 4.15239E+00 0.00000E+00
 -1         6 3.50520E+01 8.41959E+00 0.00000E+00
 -1         8 6.70560E+00 2.22504E+01 0.00000E+00
 -1        10 4.26720E+00 2.98704E+01 0.00000E+00
 -1        11 6.09600E-01 3.35280E+01 0.00000E+00
 -1        12 0.00000E+00 3.35280E+01 0.00000E+00
 -1        13 6.09600E-01 0.00000E+00 0.00000E+00
 -1        14 1.21920E+00 0.00000E+00 0.00000E+00
 -1        15 1.82880E+00 0.00000E+00 0.00000E+00
 -1        16 3.04800E-01 0.00000E+00 0.00000E+00
 -1        17 9.14400E-01 0.00000E+00 0.00000E+00
 -1        18 1.52400E+00 0.00000E+00 0.00000E+00
 -1        19 2.13360E+00 0.00000E+00 0.00000E+00
 -1        20 3.50520E+00 9.14400E-01 0.00000E+00
 -1        21 4.57200E+00 1.82880E+00 0.00000E+00
 -1        22 5.63880E+00 2.74320E+00 0.00000E+00
 -1        23 2.97180E+00 4.57200E-01 0.00000E+00
 -1        24 4.03860E+00 1.37160E+00 0.00000E+00
 -1        25 5.10540E+00 2.28600E+00 0.00000E+00
 -1        26 6.17220E+00 3.20040E+00 0.00000E+00
 -1        27 8.36295E+00 3.68653E+00 0.00000E+00
 -1        28 1.00203E+01 3.71546E+00 0.00000E+00
 -1        29 1.16777E+01 3.74439E+00 0.00000E+00
 -1        30 1.33350E+01 3.77332E+00 0.00000E+00
 -1        31 1.49923E+01 3.80225E+00 0.00000E+00
 -1        32 1.66497E+01 3.83118E+00 0.00000E+00
 -1        33 1.83071E+01 3.86010E+00 0.00000E+00
 -1        34 1.99644E+01 3.88903E+00 0.00000E+00
 -1        35 2.16217E+01 3.91796E+00 0.00000E+00
 -1        36 2.32791E+01 3.94689E+00 0.00000E+00
 -1        37 2.49364E+01 3.97582E+00 0.00000E+00
 -1        38 2.65938E+01 4.00475E+00 0.00000E+00
 -1        39 2.82512E+01 4.03368E+00 0.00000E+00
 -1        40 2.99085E+01 4.06261E+00 0.00000E+00
 -1        41 3.15658E+01 4.09154E+00 0.00000E+00
 -1        42 7.53428E+00 3.67207E+00 0.00000E+00
 -1        43 9.19162E+00 3.70099E+00 0.00000E+00
 -1        44 1.08490E+01 3.72992E+00 0.00000E+00
 -1        45 1.25063E+01 3.75885E+00 0.00000E+00
 -1        46 1.41637E+01 3.78778E+00 0.00000E+00
 -1        47 1.58210E+01 3.81671E+00 0.00000E+00
 -1        48 1.74784E+01 3.84564E+00 0.00000E+00
 -1        49 1.91357E+01 3.87457E+00 0.00000E+00
 -1        50 2.07931E+01 3.90350E+00 0.00000E+00
 -1        51 2.24504E+01 3.93243E+00 0.00000E+00
 -1        52 2.41078E+01 3.96136E+00 0.00000E+00
 -1        53 2.57651E+01 3.99028E+00 0.00000E+00
 -1        54 2.74225E+01 4.01921E+00 0.00000E+00
 -1        55 2.90798E+01 4.04814E+00 0.00000E+00
 -1        56 3.07372E+01 4.07707E+00 0.00000E+00
 -1        57 3.23945E+01 4.10600E+00 0.00000E+00
 -1        58 3.36804E+01 4.12845E+00 0.00000E+00
 -1        59 3.41376E+01 4.13643E+00 0.00000E+00
 -1        60 3.45948E+01 4.14441E+00 0.00000E+00
 -1        61 3.34518E+01 4.12446E+00 0.00000E+00
 -1        62 3.39090E+01 4.13244E+00 0.00000E+00
 -1        63 3.43662E+01 4.14042E+00 0.00000E+00
 -1        64 3.48234E+01 4.14840E+00 0.00000E+00
 -1        65 3.50520E+01 5.21919E+00 0.00000E+00
 -1        66 3.50520E+01 6.28599E+00 0.00000E+00
 -1        67 3.50520E+01 7.35279E+00 0.00000E+00
 -1        68 3.50520E+01 4.68579E+00 0.00000E+00
 -1        69 3.50520E+01 5.75259E+00 0.00000E+00
 -1        70 3.50520E+01 6.81939E+00 0.00000E+00
 -1        71 3.50520E+01 7.88619E+00 0.00000E+00
 -1        72 3.34816E+01 8.71268E+00 0.00000E+00
 -1        73 3.19203E+01 9.05063E+00 0.00000E+00
 -1        74 3.03693E+01 9.43314E+00 0.00000E+00
 -1        75 2.88298E+01 9.85991E+00 0.00000E+00
 -1        76 2.73033E+01 1.03306E+01 0.00000E+00
 -1        77 2.57908E+01 1.08448E+01 0.00000E+00
 -1        78 2.42936E+01 1.14021E+01 0.00000E+00
 -1        79 2.28131E+01 1.20020E+01 0.00000E+00
 -1        80 2.13503E+01 1.26441E+01 0.00000E+00
 -1        81 1.99065E+01 1.33277E+01 0.00000E+00
 -1        82 1.84829E+01 1.40525E+01 0.00000E+00
 -1        83 1.70806E+01 1.48177E+01 0.00000E+00
 -1        84 1.57008E+01 1.56228E+01 0.00000E+00
 -1        85 1.43446E+01 1.64670E+01 0.00000E+00
 -1        86 1.30132E+01 1.73498E+01 0.00000E+00
 -1        87 1.17075E+01 1.82702E+01 0.00000E+00
 -1        88 1.04288E+01 1.92277E+01 0.00000E+00
 -1        89 9.17798E+00 2.02215E+01 0.00000E+00
 -1        90 7.95614E+00 2.12506E+01 0.00000E+00
 -1        91 3.42658E+01 8.56052E+00 0.00000E+00
 -1        92 3.26997E+01 8.87607E+00 0.00000E+00
 -1        93 3.11434E+01 9.23633E+00 0.00000E+00
 -1        94 2.95980E+01 9.64101E+00 0.00000E+00
 -1        95 2.80649E+01 1.00898E+01 0.00000E+00
 -1        96 2.65452E+01 1.05823E+01 0.00000E+00
 -1        97 2.50402E+01 1.11180E+01 0.00000E+00
 -1        98 2.35512E+01 1.16967E+01 0.00000E+00
 -1        99 2.20794E+01 1.23178E+01 0.00000E+00
 -1       100 2.06260E+01 1.29807E+01 0.00000E+00
 -1       101 1.91921E+01 1.36850E+01 0.00000E+00
 -1       102 1.77790E+01 1.44301E+01 0.00000E+00
 -1       103 1.63878E+01 1.52153E+01 0.00000E+00
 -1       104 1.50197E+01 1.60401E+01 0.00000E+00
 -1       105 1.36757E+01 1.69036E+01 0.00000E+00
 -1       106 1.23570E+01 1.78053E+01 0.00000E+00
 -1       107 1.10647E+01 1.87444E+01 0.00000E+00
 -1       108 9.79982E+00 1.97201E+01 0.00000E+00
 -1       109 8.56338E+00 2.07317E+01 0.00000E+00
 -1       110 7.35640E+00 2.17782E+01 0.00000E+00
 -1       111 5.99467E+00 2.30152E+01 0.00000E+00
 -1       112 5.38402E+00 2.38623E+01 0.00000E+00
 -1       113 4.88306E+00 2.47785E+01 0.00000E+00
 -1       114 4.49953E+00 2.57497E+01 0.00000E+00
 -1       115 4.23934E+00 2.67610E+01 0.00000E+00
 -1       116 4.10651E+00 2.77967E+01 0.00000E+00
 -1       117 4.10307E+00 2.88409E+01 0.00000E+00
 -1       118 6.33825E+00 2.26218E+01 0.00000E+00
 -1       119 5.67618E+00 2.34293E+01 0.00000E+00
 -1       120 5.11930E+00 2.43126E+01 0.00000E+00
 -1       121 4.67621E+00 2.52581E+01 0.00000E+00
 -1       122 4.35373E+00 2.62513E+01 0.00000E+00
 -1       123 4.15683E+00 2.72768E+01 0.00000E+00
 -1       124 4.08856E+00 2.83187E+01 0.00000E+00
 -1       125 4.14997E+00 2.93611E+01 0.00000E+00
 -1       126 3.68085E+00 3.04567E+01 0.00000E+00
 -1       127 3.09451E+00 3.10431E+01 0.00000E+00
 -1       128 2.66851E+00 3.14691E+01 0.00000E+00
 -1       129 2.24251E+00 3.18951E+01 0.00000E+00
 -1       130 1.93302E+00 3.22046E+01 0.00000E+00
 -1       131 1.62353E+00 3.25141E+01 0.00000E+00
 -1       132 1.39867E+00 3.27389E+01 0.00000E+00
 -1       133 1.17380E+00 3.29638E+01 0.00000E+00
 -1       134 1.01045E+00 3.31272E+01 0.00000E+00
 -1       135 8.47093E-01 3.32905E+01 0.00000E+00
 -1       136 7.28346E-01 3.34093E+01 0.00000E+00
 -1       137 3.97403E+00 3.01636E+01 0.00000E+00
 -1       138 3.38768E+00 3.07499E+01 0.00000E+00
 -1       139 2.88151E+00 3.12561E+01 0.00000E+00
 -1       140 2.45551E+00 3.16821E+01 0.00000E+00
 -1       141 2.08777E+00 3.20498E+01 0.00000E+00
 -1       142 1.77828E+00 3.23593E+01 0.00000E+00
 -1       143 1.51110E+00 3.26265E+01 0.00000E+00
 -1       144 1.28623E+00 3.28514E+01 0.00000E+00
 -1       145 1.09212E+00 3.30455E+01 0.00000E+00
 -1       146 9.28770E-01 3.32088E+01 0.00000E+00
 -1       147 7.87720E-01 3.33499E+01 0.00000E+00
 -1       148 6.68973E-01 3.34686E+01 0.00000E+00
 -1       149 3.04800E-01 3.35280E+01 0.00000E+00
 -1       150 4.57200E-01 3.35280E+01 0.00000E+00
 -1       151 1.52400E-01 3.35280E+01 0.00000E+00
 -1       152 0.00000E+00 3.33535E+01 0.00000E+00
 -1       153 0.00000E+00 3.31789E+01 0.00000E+00
 -1       154 0.00000E+00 3.29378E+01 0.00000E+00
 -1       155 0.00000E+00 3.26966E+01 0.00000E+00
 -1       156 0.00000E+00 3.23622E+01 0.00000E+00
 -1       157 0.00000E+00 3.20278E+01 0.00000E+00
 -1       158 0.00000E+00 3.15634E+01 0.00000E+00
 -1       159 0.00000E+00 3.10990E+01 0.00000E+00
 -1       160 0.00000E+00 3.04531E+01 0.00000E+00
 -1       161 0.00000E+00 2.98072E+01 0.00000E+00
 -1       162 0.00000E+00 2.89092E+01 0.00000E+00
 -1       163 0.00000E+00 2.80113E+01 0.00000E+00
 -1       164 0.00000E+00 2.67623E+01 0.00000E+00
 -1       165 0.00000E+00 2.55133E+01 0.00000E+00
 -1       166 0.00000E+00 2.37780E+01 0.00000E+00
 -1       167 0.00000E+00 2.20428E+01 0.00000E+00
 -1       168 0.00000E+00 1.96308E+01 0.00000E+00
 -1       169 0.00000E+00 1.72188E+01 0.00000E+00
 -1       170 0.00000E+00 1.38890E+01 0.00000E+00
 -1       171 0.00000E+00 1.05593E+01 0.00000E+00
 -1       172 0.00000E+00 7.48897E+00 0.00000E+00
 -1       173 0.00000E+00 4.41861E+00 0.00000E+00
 -1       174 0.00000E+00 2.20931E+00 0.00000E+00
 -1       175 0.00000E+00 3.34407E+01 0.00000E+00
 -1       176 0.00000E+00 3.32662E+01 0.00000E+00
 -1       177 0.00000E+00 3.30584E+01 0.00000E+00
 -1       178 0.00000E+00 3.28172E+01 0.00000E+00
 -1       179 0.00000E+00 3.25294E+01 0.00000E+00
 -1       180 0.00000E+00 3.21950E+01 0.00000E+00
 -1       181 0.00000E+00 3.17956E+01 0.00000E+00
 -1       182 0.00000E+00 3.13312E+01 0.00000E+00
 -1       183 0.00000E+00 3.07760E+01 0.00000E+00
 -1       184 0.00000E+00 3.01301E+01 0.00000E+00
 -1       185 0.00000E+00 2.93582E+01 0.00000E+00
 -1       186 0.00000E+00 2.84602E+01 0.00000E+00
 -1       187 0.00000E+00 2.73868E+01 0.00000E+00
 -1       188 0.00000E+00 2.61378E+01 0.00000E+00
 -1       189 0.00000E+00 2.46456E+01 0.00000E+00
 -1       190 0.00000E+00 2.29104E+01 0.00000E+00
 -1       191 0.00000E+00 2.08368E+01 0.00000E+00
 -1       192 0.00000E+00 1.84248E+01 0.00000E+00
 -1       193 0.00000E+00 1.55539E+01 0.00000E+00
 -1       194 0.00000E+00 1.22242E+01 0.00000E+00
 -1       195 0.00000E+00 9.02414E+00 0.00000E+00
 -1       196 0.00000E+00 5.95379E+00 0.00000E+00
 -1       197 0.00000E+00 3.31396E+00 0.00000E+00
 -1       198 0.00000E+00 1.10465E+00 0.00000E+00
 -1       199 9.62843E+00 6.44974E+00 0.00000E+00
 -1       200 1.25829E+01 1.40126E+01 0.00000E+00
 -1       201 1.81702E+01 1.06202E+01 0.00000E+00
 -1       202 1.75061E+00 3.10431E+01 0.00000E+00
 -1       203 4.82144E+00 1.62799E+01 0.00000E+00
 -1       204 8.74252E-01 3.25820E+01 0.00000E+00
 -1       205 7.64825E-01 3.29145E+01 0.00000E+00
 -1       206 2.38236E+01 7.60030E+00 0.00000E+00
 -1       207 5.52757E+00 2.11932E+01 0.00000E+00
 -1       208 3.18133E+01 6.29966E+00 0.00000E+00
 -1       209 2.33664E+00 2.55825E+01 0.00000E+00
 -1       210 1.35580E+00 2.95566E+01 0.00000E+00
 -1       211 1.61963E+01 7.51416E+00 0.00000E+00
 -1       212 2.55839E+00 2.31121E+00 0.00000E+00
 -1       213 6.90230E-01 3.18432E+01 0.00000E+00
 -1       214 2.52198E+00 2.98153E+01 0.00000E+00
 -1       215 3.20481E+00 4.41650E+00 0.00000E+00
 -1       216 2.99440E+01 6.69582E+00 0.00000E+00
 -1       217 4.00049E+00 3.11121E+00 0.00000E+00
 -1       218 7.32646E+00 1.82343E+01 0.00000E+00
 -1       219 3.32865E+01 5.36242E+00 0.00000E+00
 -1       220 3.41564E+01 5.25835E+00 0.00000E+00
 -1       221 9.49712E-01 3.08857E+01 0.00000E+00
 -1       222 5.57383E-01 3.25779E+01 0.00000E+00
 -1       223 1.32704E+00 2.06625E+00 0.00000E+00
 -1       224 1.26318E+00 3.19087E+01 0.00000E+00
 -1       225 2.04899E+00 2.80590E+01 0.00000E+00
 -1       226 3.37582E+01 6.41749E+00 0.00000E+00
 -1       227 3.49110E+00 2.07391E+01 0.00000E+00
 -1       228 4.26966E-01 3.30648E+01 0.00000E+00
 -1       229 1.44572E-01 3.31050E+01 0.00000E+00
 -1       230 1.31065E+01 6.73836E+00 0.00000E+00
 -1       231 1.51731E+01 1.22304E+01 0.00000E+00
 -1       232 5.39862E+00 1.26423E+01 0.00000E+00
 -1       233 2.13047E+01 9.29772E+00 0.00000E+00
 -1       234 6.07929E+00 5.50632E+00 0.00000E+00
 -1       235 7.75080E+00 1.41555E+01 0.00000E+00
 -1       236 9.84188E+00 1.61124E+01 0.00000E+00
 -1       237 2.68005E+01 7.27671E+00 0.00000E+00
 -1       238 2.00607E+01 6.77492E+00 0.00000E+00
 -1       239 3.01004E+00 2.30297E+01 0.00000E+00
 -1       240 4.57514E+00 7.44830E+00 0.00000E+00
 -1       241 8.80814E+00 9.53374E+00 0.00000E+00
 -1       242 1.28531E+01 9.59161E+00 0.00000E+00
 -1       243 2.24909E+01 6.22651E+00 0.00000E+00
 -1       244 1.06216E+01 1.17925E+01 0.00000E+00
 -1       245 1.56639E+00 2.88427E+01 0.00000E+00
 -1       246 2.40584E+00 2.89157E+01 0.00000E+00
 -1       247 1.91954E+00 2.96587E+01 0.00000E+00
 -1       248 7.91611E-01 3.31264E+01 0.00000E+00
 -1       249 4.66873E+00 4.93397E+00 0.00000E+00
 -1       250 5.42919E+00 6.48882E+00 0.00000E+00
 -1       251 3.57394E+00 6.07625E+00 0.00000E+00
 -1       252 3.41338E+01 7.32896E+00 0.00000E+00
 -1       253 3.43949E+01 6.29217E+00 0.00000E+00
 -1       254 4.68407E+00 1.43595E+01 0.00000E+00
 -1       255 6.73381E+00 1.33188E+01 0.00000E+00
 -1       256 6.45023E+00 1.52406E+01 0.00000E+00
 -1       257 5.93140E-01 3.30192E+01 0.00000E+00
 -1       258 4.40117E-01 3.28453E+01 0.00000E+00
 -1       259 6.85452E-01 3.27387E+01 0.00000E+00
 -1       260 2.27753E+01 7.11014E+00 0.00000E+00
 -1       261 2.29866E+01 5.53828E+00 0.00000E+00
 -1       262 1.95425E+00 2.09911E+01 0.00000E+00
 -1       263 3.19920E+00 2.21103E+01 0.00000E+00
 -1       264 1.51630E+00 2.28173E+01 0.00000E+00
 -1       265 2.81910E+00 3.04482E+01 0.00000E+00
 -1       266 3.32081E+00 2.96782E+01 0.00000E+00
 -1       267 1.09165E+01 9.35524E+00 0.00000E+00
 -1       268 1.17866E+01 1.08841E+01 0.00000E+00
 -1       269 9.71296E+00 1.07963E+01 0.00000E+00
 -1       270 1.46967E+01 8.75810E+00 0.00000E+00
 -1       271 1.28065E+01 8.07539E+00 0.00000E+00
 -1       272 1.45595E+01 6.90322E+00 0.00000E+00
 -1       273 5.14781E+00 3.47579E+00 0.00000E+00
 -1       274 4.23762E+00 2.40368E+00 0.00000E+00
 -1       275 3.25475E+00 2.61380E+00 0.00000E+00
 -1       276 3.64923E+00 3.71860E+00 0.00000E+00
 -1       277 2.65586E+00 3.29684E+00 0.00000E+00
 -1       278 4.63538E+00 2.27978E+01 0.00000E+00
 -1       279 6.29686E+00 2.15627E+01 0.00000E+00
 -1       280 3.26057E+01 5.62638E+00 0.00000E+00
 -1       281 3.35157E+01 5.81850E+00 0.00000E+00
 -1       282 3.29538E+01 6.54166E+00 0.00000E+00
 -1       283 1.17028E-01 3.29133E+01 0.00000E+00
 -1       284 6.20520E-02 3.31346E+01 0.00000E+00
 -1       285 1.23730E-01 3.33003E+01 0.00000E+00
 -1       286 3.41508E+01 4.76489E+00 0.00000E+00
 -1       287 3.37478E+01 5.29164E+00 0.00000E+00
 -1       288 3.31850E+01 4.75362E+00 0.00000E+00
 -1       289 3.36988E+01 4.73179E+00 0.00000E+00
 -1       290 1.90536E+01 1.19942E+01 0.00000E+00
 -1       291 1.61566E+01 1.35380E+01 0.00000E+00
 -1       292 1.66361E+01 1.13892E+01 0.00000E+00
 -1       293 1.75823E+01 1.27435E+01 0.00000E+00
 -1       294 2.48958E+01 9.33157E+00 0.00000E+00
 -1       295 2.20693E+01 1.06365E+01 0.00000E+00
 -1       296 2.27280E+01 8.58940E+00 0.00000E+00
 -1       297 2.35480E+01 9.96344E+00 0.00000E+00
 -1       298 1.07939E+01 1.71866E+01 0.00000E+00
 -1       299 1.12202E+01 1.50428E+01 0.00000E+00
 -1       300 1.34653E+01 1.52504E+01 0.00000E+00
 -1       301 1.21209E+01 1.62017E+01 0.00000E+00
 -1       302 1.32706E+01 5.26869E+00 0.00000E+00
 -1       303 1.64325E+01 5.67381E+00 0.00000E+00
 -1       304 1.48287E+01 5.42755E+00 0.00000E+00
 -1       305 1.99190E+01 5.35991E+00 0.00000E+00
 -1       306 1.83623E+01 7.09093E+00 0.00000E+00
 -1       307 1.82378E+01 5.50765E+00 0.00000E+00
 -1       308 2.15005E+01 6.42754E+00 0.00000E+00
 -1       309 2.14754E+01 5.28050E+00 0.00000E+00
 -1       310 1.38710E+01 1.31172E+01 0.00000E+00
 -1       311 1.47962E+01 1.43694E+01 0.00000E+00
 -1       312 1.97566E+01 9.93622E+00 0.00000E+00
 -1       313 2.05602E+01 1.12964E+01 0.00000E+00
 -1       314 8.25717E+00 1.91960E+01 0.00000E+00
 -1       315 8.54846E+00 1.71611E+01 0.00000E+00
 -1       316 9.50887E+00 1.81876E+01 0.00000E+00
 -1       317 1.40208E+01 1.08852E+01 0.00000E+00
 -1       318 1.15938E+01 1.28836E+01 0.00000E+00
 -1       319 1.28283E+01 1.19117E+01 0.00000E+00
 -1       320 2.66811E+01 5.61930E+00 0.00000E+00
 -1       321 3.04267E+01 5.50394E+00 0.00000E+00
 -1       322 2.81718E+01 7.03668E+00 0.00000E+00
 -1       323 2.83134E+01 5.54587E+00 0.00000E+00
 -1       324 1.72322E+01 9.16886E+00 0.00000E+00
 -1       325 1.56346E+01 1.00238E+01 0.00000E+00
 -1       326 8.79171E+00 1.51050E+01 0.00000E+00
 -1       327 6.11340E+00 1.72816E+01 0.00000E+00
 -1       328 7.45972E+00 1.61880E+01 0.00000E+00
 -1       329 3.13523E+00 2.78541E+01 0.00000E+00
 -1       330 2.16808E+00 2.67797E+01 0.00000E+00
 -1       331 3.49010E+00 2.56220E+01 0.00000E+00
 -1       332 3.22290E+00 2.67491E+01 0.00000E+00
 -1       333 1.86038E+00 2.18502E+00 0.00000E+00
 -1       334 1.22944E+00 1.13360E+00 0.00000E+00
 -1       335 2.48997E+00 1.13952E+00 0.00000E+00
 -1       336 1.84986E+00 1.10947E+00 0.00000E+00
 -1       337 2.13971E+00 3.04061E+01 0.00000E+00
 -1       338 1.36790E+00 3.09332E+01 0.00000E+00
 -1       339 1.13522E+00 3.02652E+01 0.00000E+00
 -1       340 1.65411E+00 3.02981E+01 0.00000E+00
 -1       341 3.16802E+00 1.18519E+01 0.00000E+00
 -1       342 2.36564E+00 1.66739E+01 0.00000E+00
 -1       343 2.55531E+00 1.41887E+01 0.00000E+00
 -1       344 9.19580E+00 1.29383E+01 0.00000E+00
 -1       345 1.02094E+01 1.39799E+01 0.00000E+00
 -1       346 1.66357E+00 4.57219E+00 0.00000E+00
 -1       347 2.79857E+00 8.68170E+00 0.00000E+00
 -1       348 1.97490E+00 6.68090E+00 0.00000E+00
 -1       349 2.59863E+00 2.43576E+01 0.00000E+00
 -1       350 3.91375E+00 2.44086E+01 0.00000E+00
 -1       351 2.55658E+01 7.46880E+00 0.00000E+00
 -1       352 2.50425E+01 5.65055E+00 0.00000E+00
 -1       353 1.14320E+01 6.64899E+00 0.00000E+00
 -1       354 9.87249E+00 5.10894E+00 0.00000E+00
 -1       355 1.15989E+01 5.22137E+00 0.00000E+00
 -1       356 3.22008E+00 2.88224E+01 0.00000E+00
 -1       357 1.50034E+00 3.14890E+01 0.00000E+00
 -1       358 9.94206E-01 3.18377E+01 0.00000E+00
 -1       359 8.05066E-01 3.14000E+01 0.00000E+00
 -1       360 1.16688E+00 3.14150E+01 0.00000E+00
 -1       361 2.78297E+01 8.56606E+00 0.00000E+00
 -1       362 2.64150E+01 8.91945E+00 0.00000E+00
 -1       363 7.82124E+00 6.06456E+00 0.00000E+00
 -1       364 9.23725E+00 7.83077E+00 0.00000E+00
 -1       365 6.52442E+00 8.55324E+00 0.00000E+00
 -1       366 7.34713E+00 7.29535E+00 0.00000E+00
 -1       367 7.77528E-01 3.24891E+01 0.00000E+00
 -1       368 9.93160E-01 3.28027E+01 0.00000E+00
 -1       369 1.17533E+00 2.55074E+01 0.00000E+00
 -1       370 1.30830E+00 2.41206E+01 0.00000E+00
 -1       371 6.46624E+00 4.54762E+00 0.00000E+00
 -1       372 4.93885E+00 4.15467E+00 0.00000E+00
 -1       373 8.13849E+00 4.86670E+00 0.00000E+00
 -1       374 9.19584E-01 2.83806E+00 0.00000E+00
 -1       375 1.70702E+00 3.25495E+00 0.00000E+00
 -1       376 4.65172E+00 2.08361E+01 0.00000E+00
 -1       377 4.16210E+00 2.19147E+01 0.00000E+00
 -1       378 1.11478E+01 8.02690E+00 0.00000E+00
 -1       379 1.00262E+00 2.79155E+01 0.00000E+00
 -1       380 1.08651E+00 2.67412E+01 0.00000E+00
 -1       381 1.05703E+00 3.22925E+01 0.00000E+00
 -1       382 1.46345E+00 3.21830E+01 0.00000E+00
 -1       383 1.23579E+00 3.24864E+01 0.00000E+00
 -1       384 2.02082E+00 3.14398E+01 0.00000E+00
 -1       385 1.72941E+00 3.18291E+01 0.00000E+00
 -1       386 4.01848E+00 1.87497E+01 0.00000E+00
 -1       387 2.08459E+00 1.90114E+01 0.00000E+00
 -1       388 2.83034E-01 3.30828E+01 0.00000E+00
 -1       389 2.83720E-01 3.26013E+01 0.00000E+00
 -1       390 2.70982E-01 3.28590E+01 0.00000E+00
 -1       391 3.52511E-01 3.19116E+01 0.00000E+00
 -1       392 6.04923E-01 3.22156E+01 0.00000E+00
 -1       393 3.10289E-01 3.22727E+01 0.00000E+00
 -1       394 4.94078E-01 3.32774E+01 0.00000E+00
 -1       395 2.95286E-01 3.33014E+01 0.00000E+00
 -1       396 6.97578E-01 2.96212E+01 0.00000E+00
 -1       397 4.87507E-01 3.09492E+01 0.00000E+00
 -1       398 5.80075E-01 3.03222E+01 0.00000E+00
 -1       399 4.12749E-01 3.14563E+01 0.00000E+00
 -1       400 8.53267E-01 2.88008E+01 0.00000E+00
 -1       401 3.12334E+01 7.54684E+00 0.00000E+00
 -1       402 3.29507E+01 7.53254E+00 0.00000E+00
 -1       403 2.40866E+00 3.09405E+01 0.00000E+00
 -1       404 8.52179E-01 3.21994E+01 0.00000E+00
 -1       405 7.01181E+00 1.10727E+01 0.00000E+00
 -1       406 8.18695E+00 1.20018E+01 0.00000E+00
 -1       407 6.32989E+00 1.97049E+01 0.00000E+00
 -1       408 5.27057E+00 1.91272E+01 0.00000E+00
 -1       409 2.05786E+01 8.04705E+00 0.00000E+00
 -1       410 1.89662E+01 8.56239E+00 0.00000E+00
 -1       411 3.45706E+01 5.71853E+00 0.00000E+00
 -1       412 3.40584E+01 5.78439E+00 0.00000E+00
 -1       413 3.36088E+00 1.78122E+00 0.00000E+00
 -1       414 2.93421E+01 8.17756E+00 0.00000E+00
 -1       415 3.45946E+01 4.96037E+00 0.00000E+00
 -1       416 3.19526E+01 4.99151E+00 0.00000E+00
 -1       417 6.47962E-01 3.32123E+01 0.00000E+00
 -1       418 2.20115E+01 7.50361E+00 0.00000E+00
 -1       419 4.83819E+00 1.00411E+01 0.00000E+00
 -1       420 6.56090E-01 1.59495E+00 0.00000E+00
 -1       421 7.21002E+00 2.04285E+01 0.00000E+00
 -1       422 1.96924E+00 2.91066E+01 0.00000E+00
 -1       423 9.14413E-01 3.30730E+01 0.00000E+00
 -1       424 4.55291E+00 5.76770E+00 0.00000E+00
 -1       425 3.45402E+01 6.98924E+00 0.00000E+00
 -1       426 5.96948E+00 1.43571E+01 0.00000E+00
 -1       427 5.51799E-01 3.28741E+01 0.00000E+00
 -1       428 2.22238E+00 2.19785E+01 0.00000E+00
 -1       429 3.27937E+00 3.02021E+01 0.00000E+00
 -1       430 1.08307E+01 1.02758E+01 0.00000E+00
 -1       431 1.41011E+01 7.92734E+00 0.00000E+00
 -1       432 5.01761E+00 2.88500E+00 0.00000E+00
 -1       433 3.15321E+00 3.20471E+00 0.00000E+00
 -1       434 5.80986E+00 2.23738E+01 0.00000E+00
 -1       435 3.30536E+01 5.96871E+00 0.00000E+00
 -1       436 5.70170E-02 3.29938E+01 0.00000E+00
 -1       437 5.84430E-02 3.32645E+01 0.00000E+00
 -1       438 3.41442E+01 4.45066E+00 0.00000E+00
 -1       439 3.39248E+01 4.74834E+00 0.00000E+00
 -1       440 3.36896E+01 4.43012E+00 0.00000E+00
 -1       441 3.41536E+01 5.01162E+00 0.00000E+00
 -1       442 3.39521E+01 5.27499E+00 0.00000E+00
 -1       443 3.37233E+01 5.01171E+00 0.00000E+00
 -1       444 3.35171E+01 5.32703E+00 0.00000E+00
 -1       445 3.32357E+01 5.05802E+00 0.00000E+00
 -1       446 3.34419E+01 4.74271E+00 0.00000E+00
 -1       447 3.32041E+01 4.43705E+00 0.00000E+00
 -1       448 1.86119E+01 1.13072E+01 0.00000E+00
 -1       449 1.83180E+01 1.23688E+01 0.00000E+00
 -1       450 1.71092E+01 1.20663E+01 0.00000E+00
 -1       451 1.74031E+01 1.10047E+01 0.00000E+00
 -1       452 1.94801E+01 1.26610E+01 0.00000E+00
 -1       453 1.80326E+01 1.33980E+01 0.00000E+00
 -1       454 1.66186E+01 1.41779E+01 0.00000E+00
 -1       455 1.68694E+01 1.31408E+01 0.00000E+00
 -1       456 1.56649E+01 1.28842E+01 0.00000E+00
 -1       457 1.59046E+01 1.18098E+01 0.00000E+00
 -1       458 2.43597E+01 8.46593E+00 0.00000E+00
 -1       459 2.42219E+01 9.64750E+00 0.00000E+00
 -1       460 2.31380E+01 9.27642E+00 0.00000E+00
 -1       461 2.32758E+01 8.09485E+00 0.00000E+00
 -1       462 2.53433E+01 1.00882E+01 0.00000E+00
 -1       463 2.39208E+01 1.06827E+01 0.00000E+00
 -1       464 2.24412E+01 1.13193E+01 0.00000E+00
 -1       465 2.28087E+01 1.03000E+01 0.00000E+00
 -1       466 2.16870E+01 9.96713E+00 0.00000E+00
 -1       467 2.20164E+01 8.94356E+00 0.00000E+00
 -1       468 1.25670E+01 1.67757E+01 0.00000E+00
 -1       469 1.27931E+01 1.57260E+01 0.00000E+00
 -1       470 1.39050E+01 1.58587E+01 0.00000E+00
 -1       471 1.12507E+01 1.77284E+01 0.00000E+00
 -1       472 1.14574E+01 1.66941E+01 0.00000E+00
 -1       473 1.03179E+01 1.66495E+01 0.00000E+00
 -1       474 1.05310E+01 1.55776E+01 0.00000E+00
 -1       475 1.16705E+01 1.56223E+01 0.00000E+00
 -1       476 1.19016E+01 1.45277E+01 0.00000E+00
 -1       477 1.30241E+01 1.46315E+01 0.00000E+00
 -1       478 1.31885E+01 6.00353E+00 0.00000E+00
 -1       479 1.40496E+01 5.34812E+00 0.00000E+00
 -1       480 1.46941E+01 6.16538E+00 0.00000E+00
 -1       481 1.38330E+01 6.82079E+00 0.00000E+00
 -1       482 1.33028E+01 4.52101E+00 0.00000E+00
 -1       483 1.49105E+01 4.61490E+00 0.00000E+00
 -1       484 1.65411E+01 4.75249E+00 0.00000E+00
 -1       485 1.56306E+01 5.55068E+00 0.00000E+00
 -1       486 1.63144E+01 6.59398E+00 0.00000E+00
 -1       487 1.53779E+01 7.20869E+00 0.00000E+00
 -1       488 1.82724E+01 4.68388E+00 0.00000E+00
 -1       489 1.73351E+01 5.59073E+00 0.00000E+00
 -1       490 1.99417E+01 4.62447E+00 0.00000E+00
 -1       491 1.90784E+01 5.43378E+00 0.00000E+00
 -1       492 1.99899E+01 6.06742E+00 0.00000E+00
 -1       493 1.92115E+01 6.93293E+00 0.00000E+00
 -1       494 1.83000E+01 6.29929E+00 0.00000E+00
 -1       495 1.72793E+01 7.30255E+00 0.00000E+00
 -1       496 2.15486E+01 4.59923E+00 0.00000E+00
 -1       497 2.06972E+01 5.32020E+00 0.00000E+00
 -1       498 2.31329E+01 4.74258E+00 0.00000E+00
 -1       499 2.22310E+01 5.40939E+00 0.00000E+00
 -1       500 2.27388E+01 5.88239E+00 0.00000E+00
 -1       501 2.19957E+01 6.32702E+00 0.00000E+00
 -1       502 2.14879E+01 5.85402E+00 0.00000E+00
 -1       503 2.07806E+01 6.60123E+00 0.00000E+00
 -1       504 1.52485E+01 1.49961E+01 0.00000E+00
 -1       505 1.54764E+01 1.39537E+01 0.00000E+00
 -1       506 1.41308E+01 1.48099E+01 0.00000E+00
 -1       507 1.32269E+01 1.35649E+01 0.00000E+00
 -1       508 1.43336E+01 1.37433E+01 0.00000E+00
 -1       509 1.45221E+01 1.26738E+01 0.00000E+00
 -1       510 2.09553E+01 1.19702E+01 0.00000E+00
 -1       511 2.13148E+01 1.09665E+01 0.00000E+00
 -1       512 1.98069E+01 1.16453E+01 0.00000E+00
 -1       513 1.89634E+01 1.02782E+01 0.00000E+00
 -1       514 2.01584E+01 1.06163E+01 0.00000E+00
 -1       515 2.05306E+01 9.61697E+00 0.00000E+00
 -1       516 9.96882E+00 1.87077E+01 0.00000E+00
 -1       517 1.01514E+01 1.76871E+01 0.00000E+00
 -1       518 8.71758E+00 1.97087E+01 0.00000E+00
 -1       519 8.88302E+00 1.86918E+01 0.00000E+00
 -1       520 7.79182E+00 1.87151E+01 0.00000E+00
 -1       521 7.93746E+00 1.76977E+01 0.00000E+00
 -1       522 9.02866E+00 1.76743E+01 0.00000E+00
 -1       523 9.19517E+00 1.66367E+01 0.00000E+00
 -1       524 1.34370E+01 1.02384E+01 0.00000E+00
 -1       525 1.34246E+01 1.13984E+01 0.00000E+00
 -1       526 1.23075E+01 1.13979E+01 0.00000E+00
 -1       527 1.23199E+01 1.02378E+01 0.00000E+00
 -1       528 1.45970E+01 1.15578E+01 0.00000E+00
 -1       529 1.33497E+01 1.25144E+01 0.00000E+00
 -1       530 1.20884E+01 1.34481E+01 0.00000E+00
 -1       531 1.22111E+01 1.23976E+01 0.00000E+00
 -1       532 1.11077E+01 1.23381E+01 0.00000E+00
 -1       533 1.12041E+01 1.13383E+01 0.00000E+00
 -1       534 2.67408E+01 6.44801E+00 0.00000E+00
 -1       535 2.74972E+01 5.58258E+00 0.00000E+00
 -1       536 2.82426E+01 6.29127E+00 0.00000E+00
 -1       537 2.74862E+01 7.15670E+00 0.00000E+00
 -1       538 2.66374E+01 4.81203E+00 0.00000E+00
 -1       539 2.82823E+01 4.78977E+00 0.00000E+00
 -1       540 3.01676E+01 4.78327E+00 0.00000E+00
 -1       541 2.93701E+01 5.52490E+00 0.00000E+00
 -1       542 3.01854E+01 6.09988E+00 0.00000E+00
 -1       543 2.90579E+01 6.86625E+00 0.00000E+00
 -1       544 1.67143E+01 8.34151E+00 0.00000E+00
 -1       545 1.64334E+01 9.59632E+00 0.00000E+00
 -1       546 1.51657E+01 9.39094E+00 0.00000E+00
 -1       547 1.54465E+01 8.13613E+00 0.00000E+00
 -1       548 1.77012E+01 9.89453E+00 0.00000E+00
 -1       549 1.61353E+01 1.07065E+01 0.00000E+00
 -1       550 1.48277E+01 1.04545E+01 0.00000E+00
 -1       551 1.37749E+01 9.17486E+00 0.00000E+00
 -1       552 8.27125E+00 1.46302E+01 0.00000E+00
 -1       553 8.12572E+00 1.56465E+01 0.00000E+00
 -1       554 6.95498E+00 1.57143E+01 0.00000E+00
 -1       555 7.10051E+00 1.46980E+01 0.00000E+00
 -1       556 9.31680E+00 1.56087E+01 0.00000E+00
 -1       557 8.00409E+00 1.66745E+01 0.00000E+00
 -1       558 6.71993E+00 1.77579E+01 0.00000E+00
 -1       559 6.78656E+00 1.67348E+01 0.00000E+00
 -1       560 5.46742E+00 1.67808E+01 0.00000E+00
 -1       561 5.63584E+00 1.57603E+01 0.00000E+00
 -1       562 3.73112E+00 2.67550E+01 0.00000E+00
 -1       563 3.35650E+00 2.61855E+01 0.00000E+00
 -1       564 3.99482E+00 2.56858E+01 0.00000E+00
 -1       565 3.62087E+00 2.78254E+01 0.00000E+00
 -1       566 3.17907E+00 2.73016E+01 0.00000E+00
 -1       567 2.59211E+00 2.79565E+01 0.00000E+00
 -1       568 2.10854E+00 2.74193E+01 0.00000E+00
 -1       569 2.69549E+00 2.67644E+01 0.00000E+00
 -1       570 2.25236E+00 2.61811E+01 0.00000E+00
 -1       571 2.91337E+00 2.56022E+01 0.00000E+00
 -1       572 2.20938E+00 2.24812E+00 0.00000E+00
 -1       573 1.85512E+00 1.64725E+00 0.00000E+00
 -1       574 2.16991E+00 1.12449E+00 0.00000E+00
 -1       575 2.52418E+00 1.72537E+00 0.00000E+00
 -1       576 1.59371E+00 2.12563E+00 0.00000E+00
 -1       577 1.27824E+00 1.59992E+00 0.00000E+00
 -1       578 1.53965E+00 1.12153E+00 0.00000E+00
 -1       579 1.22432E+00 5.66800E-01 0.00000E+00
 -1       580 1.83933E+00 5.54733E-01 0.00000E+00
 -1       581 2.46418E+00 5.69759E-01 0.00000E+00
 -1       582 1.63767E+00 2.96076E+01 0.00000E+00
 -1       583 1.78683E+00 2.99784E+01 0.00000E+00
 -1       584 1.39466E+00 3.02816E+01 0.00000E+00
 -1       585 1.24551E+00 2.99109E+01 0.00000E+00
 -1       586 2.22076E+00 2.97370E+01 0.00000E+00
 -1       587 2.33084E+00 3.01107E+01 0.00000E+00
 -1       588 1.89691E+00 3.03521E+01 0.00000E+00
 -1       589 1.94516E+00 3.07246E+01 0.00000E+00
 -1       590 1.55926E+00 3.09882E+01 0.00000E+00