
 stresses (elem, integ.pnt.,sxx,syy,szz,sxy,sxz,syz) for set EALL and time  0.1000000E+01

         1   1 -1.976445E+05 -1.093452E+05 -6.139793E+04  2.619015E+04  2.117582E-11 -2.382280E-11
         1   2 -2.170044E+05 -1.129548E+05 -6.599184E+04  3.434064E+04  9.264423E-12 -9.264423E-12
         1   3 -2.364784E+05 -1.181515E+05 -7.092599E+04  4.317780E+04 -1.819797E-12 -3.705769E-11
         1   4 -2.011221E+05 -1.136071E+05 -6.294584E+04  2.389375E+04 -1.058791E-11  4.235165E-11
         1   5 -2.179036E+05 -1.187853E+05 -6.733778E+04  3.089176E+04 -2.646978E-12  2.117582E-11
         1   6 -2.348699E+05 -1.252336E+05 -7.202070E+04  3.876102E+04  1.919059E-11 -5.823352E-11
         1   7 -2.037712E+05 -1.176923E+05 -6.429270E+04  2.116736E+04 -1.058791E-11  0.000000E+00
         1   8 -2.175002E+05 -1.243763E+05 -6.837529E+04  2.720323E+04 -1.058791E-11 -8.470329E-11
         1   9 -2.316781E+05 -1.319878E+05 -7.273319E+04  3.428722E+04  3.970467E-12 -4.235165E-11
         1  10 -1.976445E+05 -1.093452E+05 -6.139793E+04  2.619015E+04  2.646978E-12  0.000000E+00
         1  11 -2.170044E+05 -1.129548E+05 -6.599184E+04  3.434064E+04 -2.646978E-12  1.058791E-11
         1  12 -2.364784E+05 -1.181515E+05 -7.092599E+04  4.317780E+04 -1.654361E-13  6.617445E-13
         1  13 -2.011221E+05 -1.136071E+05 -6.294584E+04  2.389375E+04  2.646978E-12  5.293956E-12
         1  14 -2.179036E+05 -1.187853E+05 -6.733778E+04  3.089176E+04  3.970467E-12  0.000000E+00
         1  15 -2.348699E+05 -1.252336E+05 -7.202070E+04  3.876102E+04  1.985233E-12 -4.632211E-12
         1  16 -2.037712E+05 -1.176923E+05 -6.429270E+04  2.116736E+04  1.323489E-12  2.646978E-12
         1  17 -2.175002E+05 -1.243763E+05 -6.837529E+04  2.720323E+04 -1.323489E-12 -7.940934E-12
         1  18 -2.316781E+05 -1.319878E+05 -7.273319E+04  3.428722E+04  1.654361E-12  5.293956E-12
         1  19 -1.976445E+05 -1.093452E+05 -6.139793E+04  2.619015E+04 -1.058791E-11  2.382280E-11
         1  20 -2.170044E+05 -1.129548E+05 -6.599184E+04  3.434064E+04 -9.264423E-12  5.161607E-11
         1  21 -2.364784E+05 -1.181515E+05 -7.092599E+04  4.317780E+04 -8.768114E-12  3.705769E-11
         1  22 -2.011221E+05 -1.136071E+05 -6.294584E+04  2.389375E+04  1.058791E-11  0.000000E+00
         1  23 -2.179036E+05 -1.187853E+05 -6.733778E+04  3.089176E+04  2.646978E-12  2.117582E-11
         1  24 -2.348699E+05 -1.252336E+05 -7.202070E+04  3.876102E+04 -1.919059E-11 -5.293956E-12
         1  25 -2.037712E+05 -1.176923E+05 -6.429270E+04  2.116736E+04 -1.058791E-11  0.000000E+00
         1  26 -2.175002E+05 -1.243763E+05 -6.837529E+04  2.720323E+04  0.000000E+00  4.235165E-11
         1  27 -2.316781E+05 -1.319878E+05 -7.273319E+04  3.428722E+04  1.720536E-11  2.117582E-11
         2   1 -2.508380E+05 -1.217520E+05 -7.451801E+04  4.941061E+04  1.323489E-12 -5.293956E-11
         2   2 -2.728163E+05 -1.276075E+05 -8.008477E+04  6.160797E+04  1.058791E-11 -3.176374E-11
         2   3 -2.944471E+05 -1.344299E+05 -8.577538E+04  7.432705E+04  1.960418E-11  4.499863E-11
         2   4 -2.424111E+05 -1.283258E+05 -7.414738E+04  4.440825E+04  2.117582E-11 -5.293956E-11
         2   5 -2.600770E+05 -1.360521E+05 -7.922583E+04  5.302832E+04 -7.940934E-12  4.764560E-11
         2   6 -2.773684E+05 -1.442669E+05 -8.432707E+04  6.292529E+04  1.852885E-11  4.102816E-11
         2   7 -2.418278E+05 -1.372510E+05 -7.581575E+04  3.803787E+04  2.117582E-11  0.000000E+00
         2   8 -2.519983E+05 -1.459366E+05 -7.958699E+04  4.357337E+04  2.646978E-11  3.176374E-11
         2   9 -2.624470E+05 -1.547590E+05 -8.344119E+04  5.113920E+04  1.058791E-11 -3.705769E-11
         2  10 -2.508380E+05 -1.217520E+05 -7.451801E+04  4.941061E+04  1.323489E-12 -2.646978E-12
         2  11 -2.728163E+05 -1.276075E+05 -8.008477E+04  6.160797E+04  6.617445E-13 -2.646978E-12
         2  12 -2.944471E+05 -1.344299E+05 -8.577538E+04  7.432705E+04  9.926167E-13  1.323489E-12
         2  13 -2.424111E+05 -1.283258E+05 -7.414738E+04  4.440825E+04  5.293956E-12  5.293956E-12
         2  14 -2.600770E+05 -1.360521E+05 -7.922583E+04  5.302832E+04 -2.646978E-12 -5.293956E-12
         2  15 -2.773684E+05 -1.442669E+05 -8.432707E+04  6.292529E+04 -5.955700E-12 -7.279189E-12
         2  16 -2.418278E+05 -1.372510E+05 -7.581575E+04  3.803787E+04  0.000000E+00 -5.293956E-12
         2  17 -2.519983E+05 -1.459366E+05 -7.958699E+04  4.357337E+04 -1.985233E-12 -7.940934E-12
         2  18 -2.624470E+05 -1.547590E+05 -8.344119E+04  5.113920E+04 -1.654361E-12  1.985233E-12
         2  19 -2.508380E+05 -1.217520E+05 -7.451801E+04  4.941061E+04 -1.191140E-11  5.293956E-11
         2  20 -2.728163E+05 -1.276075E+05 -8.008477E+04  6.160797E+04  0.000000E+00  1.058791E-11
         2  21 -2.944471E+05 -1.344299E+05 -8.577538E+04  7.432705E+04 -1.960418E-11 -2.382280E-11
         2  22 -2.424111E+05 -1.283258E+05 -7.414738E+04  4.440825E+04 -1.058791E-11 -1.058791E-11
         2  23 -2.600770E+05 -1.360521E+05 -7.922583E+04  5.302832E+04 -2.646978E-12  1.588187E-11
         2  24 -2.773684E+05 -1.442669E+05 -8.432707E+04  6.292529E+04  2.646978E-12  1.323489E-12
         2  25 -2.418278E+05 -1.372510E+05 -7.581575E+04  3.803787E+04 -1.058791E-11  0.000000E+00
         2  26 -2.519983E+05 -1.459366E+05 -7.958699E+04  4.357337E+04 -5.293956E-12 -3.176374E-11
         2  27 -2.624470E+05 -1.547590E+05 -8.344119E+04  5.113920E+04 -1.058791E-11 -5.293956E-12
         3   1 -2.395475E+05 -1.411220E+05 -7.613389E+04  3.208867E+04 -6.617445E-13 -1.058791E-11
         3   2 -2.492505E+05 -1.507973E+05 -8.000956E+04  3.808779E+04  6.617445E-12 -3.838118E-11
         3   3 -2.579869E+05 -1.595219E+05 -8.350178E+04  4.236775E+04 -1.654361E-12 -1.356576E-11
         3   4 -2.336928E+05 -1.446278E+05 -7.566411E+04  2.215328E+04  1.852885E-11  1.058791E-11
         3   5 -2.461316E+05 -1.536451E+05 -7.995534E+04  2.357978E+04 -9.264423E-12 -1.058791E-11
         3   6 -2.575713E+05 -1.622238E+05 -8.395901E+04  2.413482E+04  9.595295E-12 -1.720536E-11
         3   7 -2.386636E+05 -1.502609E+05 -7.778490E+04  1.262430E+04  0.000000E+00  0.000000E+00
         3   8 -2.497759E+05 -1.577401E+05 -8.150320E+04  9.295272E+03 -2.646978E-12 -2.117582E-11
         3   9 -2.609540E+05 -1.655664E+05 -8.530409E+04  6.050537E+03  1.323489E-11 -7.940934E-12
         3  10 -2.395475E+05 -1.411220E+05 -7.613389E+04  3.208867E+04 -6.617445E-13  0.000000E+00
         3  11 -2.492505E+05 -1.507973E+05 -8.000956E+04  3.808779E+04  1.323489E-12  1.323489E-12
         3  12 -2.579869E+05 -1.595219E+05 -8.350178E+04  4.236775E+04 -2.481542E-13  0.000000E+00
         3  13 -2.336928E+05 -1.446278E+05 -7.566411E+04  2.215328E+04 -2.646978E-12  5.293956E-12
         3  14 -2.461316E+05 -1.536451E+05 -7.995534E+04  2.357978E+04  0.000000E+00 -2.646978E-12
         3  15 -2.575713E+05 -1.622238E+05 -8.395901E+04  2.413482E+04  3.308722E-13  1.389663E-11
         3  16 -2.386636E+05 -1.502609E+05 -7.778490E+04  1.262430E+04 -6.617445E-13 -2.646978E-12
         3  17 -2.497759E+05 -1.577401E+05 -8.150320E+04  9.295272E+03  2.646978E-12  5.293956E-12
         3  18 -2.609540E+05 -1.655664E+05 -8.530409E+04  6.050537E+03  5.790264E-13  3.639595E-12
         3  19 -2.395475E+05 -1.411220E+05 -7.613389E+04  3.208867E+04 -9.926167E-12  1.058791E-11
         3  20 -2.492505E+05 -1.507973E+05 -8.000956E+04  3.808779E+04 -6.617445E-12  1.720536E-11
         3  21 -2.579869E+05 -1.595219E+05 -8.350178E+04  4.236775E+04  1.654361E-12 -7.610062E-12
         3  22 -2.336928E+05 -1.446278E+05 -7.566411E+04  2.215328E+04  2.646978E-12  1.058791E-11
         3  23 -2.461316E+05 -1.536451E+05 -7.995534E+04  2.357978E+04  9.264423E-12  1.058791E-11
         3  24 -2.575713E+05 -1.622238E+05 -8.395901E+04  2.413482E+04 -4.301339E-12 -2.514629E-11
         3  25 -2.386636E+05 -1.502609E+05 -7.778490E+04  1.262430E+04  5.293956E-12  0.000000E+00
         3  26 -2.497759E+05 -1.577401E+05 -8.150320E+04  9.295272E+03 -7.940934E-12  0.000000E+00
         3  27 -2.609540E+05 -1.655664E+05 -8.530409E+04  6.050537E+03  2.646978E-12 -1.323489E-11
         4   1 -2.044763E+05 -1.205403E+05 -6.500333E+04  1.954451E+04 -1.389663E-11  0.000000E+00
         4   2 -2.173166E+05 -1.273719E+05 -6.893771E+04  2.446638E+04  3.308722E-12  3.970467E-12
         4   3 -2.300651E+05 -1.350524E+05 -7.302349E+04  2.884802E+04  3.341810E-11 -2.084495E-11
         4   4 -2.049804E+05 -1.239203E+05 -6.578014E+04  1.615245E+04  2.646978E-12 -1.058791E-11
         4   5 -2.180338E+05 -1.315356E+05 -6.991386E+04  1.867939E+04 -2.646978E-12  3.176374E-11
         4   6 -2.311189E+05 -1.401898E+05 -7.426175E+04  2.117875E+04  2.514629E-11  4.896909E-11
         4   7 -2.074442E+05 -1.277868E+05 -6.704620E+04  1.279075E+04  2.117582E-11  0.000000E+00
         4   8 -2.191772E+05 -1.358231E+05 -7.100006E+04  1.281329E+04 -7.940934E-12  1.058791E-11
         4   9 -2.316973E+05 -1.452570E+05 -7.539086E+04  1.342593E+04  1.588187E-11  1.852885E-11
         4  10 -2.044763E+05 -1.205403E+05 -6.500333E+04  1.954451E+04  1.323489E-12  0.000000E+00
         4  11 -2.173166E+05 -1.273719E+05 -6.893771E+04  2.446638E+04 -2.646978E-12  0.000000E+00
         4  12 -2.300651E+05 -1.350524E+05 -7.302349E+04  2.884802E+04 -1.488925E-12  5.955700E-12
         4  13 -2.049804E+05 -1.239203E+05 -6.578014E+04  1.615245E+04  0.000000E+00  5.293956E-12
         4  14 -2.180338E+05 -1.315356E+05 -6.991386E+04  1.867939E+04 -7.940934E-12  0.000000E+00
         4  15 -2.311189E+05 -1.401898E+05 -7.426175E+04  2.117875E+04 -1.654361E-12  6.617445E-13
         4  16 -2.074442E+05 -1.277868E+05 -6.704620E+04  1.279075E+04  0.000000E+00 -2.646978E-12
         4  17 -2.191772E+05 -1.358231E+05 -7.100006E+04  1.281329E+04  0.000000E+00 -1.323489E-12
         4  18 -2.316973E+05 -1.452570E+05 -7.539086E+04  1.342593E+04 -3.308722E-13 -3.308722E-13
         4  19 -2.044763E+05 -1.205403E+05 -6.500333E+04  1.954451E+04  2.448455E-11  2.117582E-11
         4  20 -2.173166E+05 -1.273719E+05 -6.893771E+04  2.446638E+04  7.279189E-12 -3.970467E-12
         4  21 -2.300651E+05 -1.350524E+05 -7.302349E+04  2.884802E+04 -1.224227E-11  6.319660E-11
         4  22 -2.049804E+05 -1.239203E+05 -6.578014E+04  1.615245E+04 -1.323489E-11  1.058791E-11
         4  23 -2.180338E+05 -1.315356E+05 -6.991386E+04  1.867939E+04 -7.940934E-12  1.058791E-11
         4  24 -2.311189E+05 -1.401898E+05 -7.426175E+04  2.117875E+04 -1.455838E-11 -6.617445E-12
         4  25 -2.074442E+05 -1.277868E+05 -6.704620E+04  1.279075E+04 -1.058791E-11  2.117582E-11
         4  26 -2.191772E+05 -1.358231E+05 -7.100006E+04  1.281329E+04 -1.323489E-11 -1.058791E-11
         4  27 -2.316973E+05 -1.452570E+05 -7.539086E+04  1.342593E+04 -5.293956E-12  2.646978E-12
         5   1 -5.641871E+05 -2.060778E+05 -1.540530E+05  1.859133E+05  8.933551E-12 -2.646978E-12
         5   2 -5.867656E+05 -1.880473E+05 -1.549626E+05  1.800247E+05  1.654361E-13 -5.624828E-12
         5   3 -6.100892E+05 -1.729664E+05 -1.566111E+05  1.740191E+05 -3.391441E-12 -2.109311E-12
         5   4 -5.680507E+05 -1.981957E+05 -1.532493E+05  1.817936E+05  1.323489E-12  2.646978E-12
         5   5 -5.899710E+05 -1.829399E+05 -1.545822E+05  1.774936E+05  0.000000E+00  1.323489E-12
         5   6 -6.126047E+05 -1.705148E+05 -1.566239E+05  1.730232E+05  1.488925E-12  1.158053E-12
         5   7 -5.661576E+05 -1.881369E+05 -1.508589E+05  1.760875E+05  7.940934E-12  0.000000E+00
         5   8 -5.877036E+05 -1.759324E+05 -1.527272E+05  1.736062E+05  1.323489E-12  0.000000E+00
         5   9 -6.099040E+05 -1.664017E+05 -1.552612E+05  1.708756E+05 -1.985233E-12 -1.323489E-12
         5  10 -5.641871E+05 -2.060778E+05 -1.540530E+05  1.859133E+05  0.000000E+00  0.000000E+00
         5  11 -5.867656E+05 -1.880473E+05 -1.549626E+05  1.800247E+05 -6.617445E-13 -1.654361E-13
         5  12 -6.100892E+05 -1.729664E+05 -1.566111E+05  1.740191E+05 -8.271806E-14  2.481542E-13
         5  13 -5.680507E+05 -1.981957E+05 -1.532493E+05  1.817936E+05  0.000000E+00  0.000000E+00
         5  14 -5.899710E+05 -1.829399E+05 -1.545822E+05  1.774936E+05 -6.617445E-13 -6.617445E-13
         5  15 -6.126047E+05 -1.705148E+05 -1.566239E+05  1.730232E+05  9.926167E-13 -8.271806E-13
         5  16 -5.661576E+05 -1.881369E+05 -1.508589E+05  1.760875E+05  0.000000E+00 -6.617445E-13
         5  17 -5.877036E+05 -1.759324E+05 -1.527272E+05  1.736062E+05  6.617445E-13 -3.308722E-13
         5  18 -6.099040E+05 -1.664017E+05 -1.552612E+05  1.708756E+05 -8.271806E-14 -8.271806E-14
         5  19 -5.641871E+05 -2.060778E+05 -1.540530E+05  1.859133E+05 -3.639595E-12 -2.646978E-12
         5  20 -5.867656E+05 -1.880473E+05 -1.549626E+05  1.800247E+05  2.481542E-12  2.977850E-12
         5  21 -6.100892E+05 -1.729664E+05 -1.566111E+05  1.740191E+05 -1.902515E-12 -5.376674E-13
         5  22 -5.680507E+05 -1.981957E+05 -1.532493E+05  1.817936E+05 -1.323489E-12  0.000000E+00
         5  23 -5.899710E+05 -1.829399E+05 -1.545822E+05  1.774936E+05  0.000000E+00 -1.323489E-12
         5  24 -6.126047E+05 -1.705148E+05 -1.566239E+05  1.730232E+05 -1.488925E-12  1.654361E-13
         5  25 -5.661576E+05 -1.881369E+05 -1.508589E+05  1.760875E+05 -2.646978E-12  0.000000E+00
         5  26 -5.877036E+05 -1.759324E+05 -1.527272E+05  1.736062E+05 -1.323489E-12  0.000000E+00
         5  27 -6.099040E+05 -1.664017E+05 -1.552612E+05  1.708756E+05  1.985233E-12  1.323489E-12
         6   1 -6.256559E+05 -1.669063E+05 -1.585124E+05  1.721090E+05 -1.654361E-13 -8.271806E-13
         6   2 -6.499121E+05 -1.635513E+05 -1.626927E+05  1.717401E+05  1.737079E-12 -9.098987E-13
         6   3 -6.761707E+05 -1.682672E+05 -1.688876E+05  1.713569E+05  6.203855E-14  4.549493E-13
         6   4 -6.280365E+05 -1.652736E+05 -1.586620E+05  1.715982E+05  1.323489E-12  0.000000E+00
         6   5 -6.506638E+05 -1.620113E+05 -1.625350E+05  1.707076E+05  6.617445E-13 -9.926167E-13
         6   6 -6.755066E+05 -1.676166E+05 -1.686247E+05  1.698035E+05 -4.135903E-13 -4.135903E-13
         6   7 -6.239831E+05 -1.619727E+05 -1.571912E+05  1.705839E+05  2.646978E-12 -1.323489E-12
         6   8 -6.452324E+05 -1.588375E+05 -1.608140E+05  1.690294E+05  1.985233E-12  1.323489E-12
         6   9 -6.689157E+05 -1.654545E+05 -1.668740E+05  1.674731E+05  3.308722E-13 -3.308722E-13
         6  10 -6.256559E+05 -1.669063E+05 -1.585124E+05  1.721090E+05 -1.654361E-13  0.000000E+00
         6  11 -6.499121E+05 -1.635513E+05 -1.626927E+05  1.717401E+05  0.000000E+00  0.000000E+00
         6  12 -6.761707E+05 -1.682672E+05 -1.688876E+05  1.713569E+05  1.033976E-13  0.000000E+00
         6  13 -6.280365E+05 -1.652736E+05 -1.586620E+05  1.715982E+05  0.000000E+00 -3.308722E-13
         6  14 -6.506638E+05 -1.620113E+05 -1.625350E+05  1.707076E+05 -6.617445E-13  1.654361E-13
         6  15 -6.755066E+05 -1.676166E+05 -1.686247E+05  1.698035E+05  8.271806E-14  1.240771E-13
         6  16 -6.239831E+05 -1.619727E+05 -1.571912E+05  1.705839E+05  0.000000E+00  0.000000E+00
         6  17 -6.452324E+05 -1.588375E+05 -1.608140E+05  1.690294E+05  0.000000E+00  0.000000E+00
         6  18 -6.689157E+05 -1.654545E+05 -1.668740E+05  1.674731E+05 -6.203855E-14 -2.067952E-14
         6  19 -6.256559E+05 -1.669063E+05 -1.585124E+05  1.721090E+05 -1.158053E-12  8.271806E-13
         6  20 -6.499121E+05 -1.635513E+05 -1.626927E+05  1.717401E+05  9.098987E-13  2.481542E-13
         6  21 -6.761707E+05 -1.682672E+05 -1.688876E+05  1.713569E+05  1.033976E-13  4.135903E-14
         6  22 -6.280365E+05 -1.652736E+05 -1.586620E+05  1.715982E+05  1.323489E-12  1.323489E-12
         6  23 -6.506638E+05 -1.620113E+05 -1.625350E+05  1.707076E+05 -6.617445E-13 -3.308722E-13
         6  24 -6.755066E+05 -1.676166E+05 -1.686247E+05  1.698035E+05 -2.481542E-13 -8.271806E-14
         6  25 -6.239831E+05 -1.619727E+05 -1.571912E+05  1.705839E+05 -1.323489E-12  0.000000E+00
         6  26 -6.452324E+05 -1.588375E+05 -1.608140E+05  1.690294E+05 -1.985233E-12  0.000000E+00
         6  27 -6.689157E+05 -1.654545E+05 -1.668740E+05  1.674731E+05 -1.654361E-13  0.000000E+00
         7   1 -6.192066E+05 -1.611483E+05 -1.560710E+05  1.705359E+05  2.481542E-12 -4.963084E-13
         7   2 -6.403187E+05 -1.607876E+05 -1.602213E+05  1.684402E+05  1.240771E-12  2.481542E-13
         7   3 -6.626299E+05 -1.652206E+05 -1.655701E+05  1.664294E+05  2.895132E-13 -1.033976E-14
         7   4 -6.079859E+05 -1.599245E+05 -1.535821E+05  1.701023E+05  6.617445E-13 -1.323489E-12
         7   5 -6.272186E+05 -1.580874E+05 -1.570612E+05  1.677760E+05  9.926167E-13 -9.926167E-13
         7   6 -6.477780E+05 -1.615748E+05 -1.618706E+05  1.656021E+05  1.654361E-13  0.000000E+00
         7   7 -5.915426E+05 -1.575764E+05 -1.498238E+05  1.699291E+05  0.000000E+00  6.617445E-13
         7   8 -6.089933E+05 -1.541596E+05 -1.526306E+05  1.672581E+05  6.617445E-13  0.000000E+00
         7   9 -6.279066E+05 -1.566775E+05 -1.569168E+05  1.648260E+05  4.963084E-13 -2.481542E-13
         7  10 -6.192066E+05 -1.611483E+05 -1.560710E+05  1.705359E+05  1.654361E-13 -1.654361E-13
         7  11 -6.403187E+05 -1.607876E+05 -1.602213E+05  1.684402E+05  0.000000E+00  0.000000E+00
         7  12 -6.626299E+05 -1.652206E+05 -1.655701E+05  1.664294E+05  1.033976E-13  0.000000E+00
         7  13 -6.079859E+05 -1.599245E+05 -1.535821E+05  1.701023E+05  0.000000E+00  0.000000E+00
         7  14 -6.272186E+05 -1.580874E+05 -1.570612E+05  1.677760E+05  0.000000E+00  0.000000E+00
         7  15 -6.477780E+05 -1.615748E+05 -1.618706E+05  1.656021E+05  0.000000E+00  4.135903E-14
         7  16 -5.915426E+05 -1.575764E+05 -1.498238E+05  1.699291E+05 -3.308722E-13  0.000000E+00
         7  17 -6.089933E+05 -1.541596E+05 -1.526306E+05  1.672581E+05  0.000000E+00  8.271806E-14
         7  18 -6.279066E+05 -1.566775E+05 -1.569168E+05  1.648260E+05 -6.203855E-14  4.135903E-14
         7  19 -6.192066E+05 -1.611483E+05 -1.560710E+05  1.705359E+05 -3.805031E-12 -8.271806E-13
         7  20 -6.403187E+05 -1.607876E+05 -1.602213E+05  1.684402E+05 -5.790264E-13  1.075335E-12
         7  21 -6.626299E+05 -1.652206E+05 -1.655701E+05  1.664294E+05  4.135903E-14  1.033976E-14
         7  22 -6.079859E+05 -1.599245E+05 -1.535821E+05  1.701023E+05 -1.985233E-12  0.000000E+00
         7  23 -6.272186E+05 -1.580874E+05 -1.570612E+05  1.677760E+05 -3.308722E-13 -3.308722E-13
         7  24 -6.477780E+05 -1.615748E+05 -1.618706E+05  1.656021E+05 -1.654361E-13  0.000000E+00
         7  25 -5.915426E+05 -1.575764E+05 -1.498238E+05  1.699291E+05  0.000000E+00  6.617445E-13
         7  26 -6.089933E+05 -1.541596E+05 -1.526306E+05  1.672581E+05  0.000000E+00  0.000000E+00
         7  27 -6.279066E+05 -1.566775E+05 -1.569168E+05  1.648260E+05 -3.308722E-13  2.481542E-13
         8   1 -5.636124E+05 -1.852450E+05 -1.497715E+05  1.744840E+05  0.000000E+00 -9.926167E-13
         8   2 -5.842406E+05 -1.729756E+05 -1.514432E+05  1.724698E+05 -4.301339E-12 -4.632211E-12
         8   3 -6.056435E+05 -1.637341E+05 -1.538755E+05  1.706670E+05  8.685396E-13  1.075335E-12
         8   4 -5.571335E+05 -1.814062E+05 -1.477079E+05  1.731983E+05  0.000000E+00 -1.323489E-12
         8   5 -5.760523E+05 -1.706737E+05 -1.493452E+05  1.718501E+05 -1.323489E-12  1.323489E-12
         8   6 -5.957636E+05 -1.629535E+05 -1.517434E+05  1.707815E+05 -1.158053E-12 -1.654361E-12
         8   7 -5.458192E+05 -1.758060E+05 -1.443250E+05  1.706607E+05  5.293956E-12 -3.970467E-12
         8   8 -5.630637E+05 -1.667667E+05 -1.459661E+05  1.701394E+05  0.000000E+00 -1.323489E-12
         8   9 -5.811178E+05 -1.607063E+05 -1.483648E+05  1.699601E+05  2.977850E-12 -1.323489E-12
         8  10 -5.636124E+05 -1.852450E+05 -1.497715E+05  1.744840E+05  0.000000E+00 -3.308722E-13
         8  11 -5.842406E+05 -1.729756E+05 -1.514432E+05  1.724698E+05 -4.963084E-13  3.308722E-13
         8  12 -6.056435E+05 -1.637341E+05 -1.538755E+05  1.706670E+05 -4.549493E-13 -2.067952E-13
         8  13 -5.571335E+05 -1.814062E+05 -1.477079E+05  1.731983E+05  0.000000E+00  6.617445E-13
         8  14 -5.760523E+05 -1.706737E+05 -1.493452E+05  1.718501E+05  0.000000E+00  6.617445E-13
         8  15 -5.957636E+05 -1.629535E+05 -1.517434E+05  1.707815E+05 -8.271806E-13 -7.444626E-13
         8  16 -5.458192E+05 -1.758060E+05 -1.443250E+05  1.706607E+05  6.617445E-13  0.000000E+00
         8  17 -5.630637E+05 -1.667667E+05 -1.459661E+05  1.701394E+05 -9.926167E-13 -3.308722E-13
         8  18 -5.811178E+05 -1.607063E+05 -1.483648E+05  1.699601E+05  6.203855E-13  4.135903E-14
         8  19 -5.636124E+05 -1.852450E+05 -1.497715E+05  1.744840E+05  0.000000E+00  9.926167E-13
         8  20 -5.842406E+05 -1.729756E+05 -1.514432E+05  1.724698E+05 -9.926167E-13 -3.308722E-12
         8  21 -6.056435E+05 -1.637341E+05 -1.538755E+05  1.706670E+05 -6.162496E-12  2.481542E-13
         8  22 -5.571335E+05 -1.814062E+05 -1.477079E+05  1.731983E+05 -2.646978E-12 -1.323489E-12
         8  23 -5.760523E+05 -1.706737E+05 -1.493452E+05  1.718501E+05  1.323489E-12 -1.323489E-12
         8  24 -5.957636E+05 -1.629535E+05 -1.517434E+05  1.707815E+05 -1.488925E-12 -9.926167E-13
         8  25 -5.458192E+05 -1.758060E+05 -1.443250E+05  1.706607E+05 -2.646978E-12  3.970467E-12
         8  26 -5.630637E+05 -1.667667E+05 -1.459661E+05  1.701394E+05 -2.646978E-12  1.323489E-12
         8  27 -5.811178E+05 -1.607063E+05 -1.483648E+05  1.699601E+05 -3.308722E-13  2.646978E-12
         9   1 -4.512691E+05 -4.024263E+05 -1.707391E+05  3.004463E+05 -9.926167E-12  1.091878E-11
         9   2 -3.637740E+05 -4.132353E+05 -1.554019E+05  2.603738E+05 -1.158053E-11  6.948317E-12
         9   3 -2.874879E+05 -3.847993E+05 -1.344575E+05  2.160717E+05 -9.471218E-12  6.906958E-12
         9   4 -4.369698E+05 -3.359301E+05 -1.545800E+05  2.485406E+05 -7.940934E-12  4.632211E-12
         9   5 -3.914621E+05 -3.350418E+05 -1.453008E+05  2.236028E+05  1.323489E-12 -2.646978E-12
         9   6 -3.540570E+05 -3.109501E+05 -1.330014E+05  1.977458E+05 -4.632211E-12  2.977850E-12
         9   7 -4.526964E+05 -3.085183E+05 -1.522429E+05  2.169195E+05 -5.293956E-12  1.323489E-12
         9   8 -4.374316E+05 -2.844825E+05 -1.443828E+05  1.999731E+05 -3.970467E-12  5.293956E-12
         9   9 -4.249864E+05 -2.494277E+05 -1.348828E+05  1.836878E+05 -6.617445E-13  2.812414E-12
         9  10 -4.512691E+05 -4.024263E+05 -1.707391E+05  3.004463E+05 -3.308722E-13  0.000000E+00
         9  11 -3.637740E+05 -4.132353E+05 -1.554019E+05  2.603738E+05 -1.654361E-13  6.617445E-13
         9  12 -2.874879E+05 -3.847993E+05 -1.344575E+05  2.160717E+05  2.481542E-13 -5.376674E-13
         9  13 -4.369698E+05 -3.359301E+05 -1.545800E+05  2.485406E+05  6.617445E-13  0.000000E+00
         9  14 -3.914621E+05 -3.350418E+05 -1.453008E+05  2.236028E+05 -6.617445E-13  0.000000E+00
         9  15 -3.540570E+05 -3.109501E+05 -1.330014E+05  1.977458E+05 -5.790264E-13 -1.654361E-13
         9  16 -4.526964E+05 -3.085183E+05 -1.522429E+05  2.169195E+05 -3.308722E-13  0.000000E+00
         9  17 -4.374316E+05 -2.844825E+05 -1.443828E+05  1.999731E+05  4.963084E-13  1.654361E-13
         9  18 -4.249864E+05 -2.494277E+05 -1.348828E+05  1.836878E+05 -6.617445E-13 -8.271806E-14
         9  19 -4.512691E+05 -4.024263E+05 -1.707391E+05  3.004463E+05  9.926167E-12 -2.977850E-12
         9  20 -3.637740E+05 -4.132353E+05 -1.554019E+05  2.603738E+05  8.933551E-12 -6.948317E-12
         9  21 -2.874879E+05 -3.847993E+05 -1.344575E+05  2.160717E+05  9.471218E-12 -6.906958E-12
         9  22 -4.369698E+05 -3.359301E+05 -1.545800E+05  2.485406E+05  5.293956E-12 -4.632211E-12
         9  23 -3.914621E+05 -3.350418E+05 -1.453008E+05  2.236028E+05 -1.323489E-12  2.646978E-12
         9  24 -3.540570E+05 -3.109501E+05 -1.330014E+05  1.977458E+05  4.632211E-12 -4.301339E-12
         9  25 -4.526964E+05 -3.085183E+05 -1.522429E+05  2.169195E+05  5.293956E-12 -1.323489E-12
         9  26 -4.374316E+05 -2.844825E+05 -1.443828E+05  1.999731E+05  6.617445E-12 -5.293956E-12
         9  27 -4.249864E+05 -2.494277E+05 -1.348828E+05  1.836878E+05  3.308722E-12 -2.812414E-12
        10   1 -2.419724E+05 -3.589766E+05 -1.201898E+05  1.834178E+05 -9.926167E-12  6.617445E-12
        10   2 -1.961608E+05 -3.202329E+05 -1.032788E+05  1.349944E+05 -7.527344E-12  7.692780E-12
        10   3 -1.603361E+05 -2.708550E+05 -8.623823E+04  9.062926E+04 -5.666187E-12  6.720842E-12
        10   4 -3.343707E+05 -2.968367E+05 -1.262415E+05  1.832765E+05 -7.940934E-12  5.955700E-12
        10   5 -2.999007E+05 -2.728791E+05 -1.145560E+05  1.563847E+05 -1.654361E-12  9.926167E-13
        10   6 -2.732184E+05 -2.425217E+05 -1.031480E+05  1.306457E+05 -2.895132E-12  3.805031E-12
        10   7 -4.120318E+05 -2.353294E+05 -1.294722E+05  1.770788E+05 -9.264423E-12 -1.323489E-12
        10   8 -3.815221E+05 -2.141550E+05 -1.191354E+05  1.661159E+05 -3.308722E-12  3.308722E-12
        10   9 -3.576145E+05 -1.906672E+05 -1.096563E+05  1.537988E+05 -2.481542E-12  3.143286E-12
        10  10 -2.419724E+05 -3.589766E+05 -1.201898E+05  1.834178E+05  0.000000E+00  0.000000E+00
        10  11 -1.961608E+05 -3.202329E+05 -1.032788E+05  1.349944E+05 -3.308722E-13  0.000000E+00
        10  12 -1.603361E+05 -2.708550E+05 -8.623823E+04  9.062926E+04  4.135903E-14  1.033976E-13
        10  13 -3.343707E+05 -2.968367E+05 -1.262415E+05  1.832765E+05  0.000000E+00  6.617445E-13
        10  14 -2.999007E+05 -2.728791E+05 -1.145560E+05  1.563847E+05  6.617445E-13  0.000000E+00
        10  15 -2.732184E+05 -2.425217E+05 -1.031480E+05  1.306457E+05  3.308722E-13 -4.549493E-13
        10  16 -4.120318E+05 -2.353294E+05 -1.294722E+05  1.770788E+05  0.000000E+00 -1.654361E-13
        10  17 -3.815221E+05 -2.141550E+05 -1.191354E+05  1.661159E+05 -1.654361E-13  2.481542E-13
        10  18 -3.576145E+05 -1.906672E+05 -1.096563E+05  1.537988E+05  3.101927E-13 -2.274747E-13
        10  19 -2.419724E+05 -3.589766E+05 -1.201898E+05  1.834178E+05  1.257315E-11 -7.940934E-12
        10  20 -1.961608E+05 -3.202329E+05 -1.032788E+05  1.349944E+05  7.527344E-12 -6.369291E-12
        10  21 -1.603361E+05 -2.708550E+05 -8.623823E+04  9.062926E+04  6.989676E-12 -6.720842E-12
        10  22 -3.343707E+05 -2.968367E+05 -1.262415E+05  1.832765E+05  7.940934E-12 -4.632211E-12
        10  23 -2.999007E+05 -2.728791E+05 -1.145560E+05  1.563847E+05 -9.926167E-13 -9.926167E-13
        10  24 -2.732184E+05 -2.425217E+05 -1.031480E+05  1.306457E+05  4.218621E-12 -2.481542E-12
        10  25 -4.120318E+05 -2.353294E+05 -1.294722E+05  1.770788E+05  6.617445E-12 -1.323489E-12
        10  26 -3.815221E+05 -2.141550E+05 -1.191354E+05  1.661159E+05  3.308722E-12 -1.985233E-12
        10  27 -3.576145E+05 -1.906672E+05 -1.096563E+05  1.537988E+05  2.481542E-12 -1.819797E-12
        11   1 -4.355551E+05 -2.163065E+05 -1.303723E+05  1.740020E+05 -3.970467E-12  7.444626E-13
        11   2 -4.197680E+05 -1.998186E+05 -1.239173E+05  1.637998E+05 -1.571643E-12  9.926167E-13
        11   3 -4.062922E+05 -1.759861E+05 -1.164557E+05  1.542496E+05 -2.295426E-12  8.065011E-13
        11   4 -4.791383E+05 -1.902689E+05 -1.338815E+05  1.702588E+05  6.617445E-13  3.308722E-13
        11   5 -4.747124E+05 -1.762633E+05 -1.301951E+05  1.661573E+05 -3.308722E-13  3.308722E-13
        11   6 -4.710998E+05 -1.563261E+05 -1.254852E+05  1.621269E+05 -1.985233E-12  7.444626E-13
        11   7 -5.238774E+05 -1.694547E+05 -1.386664E+05  1.680115E+05 -1.323489E-12  6.617445E-13
        11   8 -5.281042E+05 -1.540761E+05 -1.364361E+05  1.680814E+05 -1.985233E-12  0.000000E+00
        11   9 -5.322931E+05 -1.350200E+05 -1.334626E+05  1.680908E+05 -4.963084E-13  2.481542E-13
        11  10 -4.355551E+05 -2.163065E+05 -1.303723E+05  1.740020E+05  1.654361E-13  0.000000E+00
        11  11 -4.197680E+05 -1.998186E+05 -1.239173E+05  1.637998E+05 -8.271806E-14 -2.481542E-13
        11  12 -4.062922E+05 -1.759861E+05 -1.164557E+05  1.542496E+05 -1.033976E-13 -1.654361E-13
        11  13 -4.791383E+05 -1.902689E+05 -1.338815E+05  1.702588E+05 -6.617445E-13  0.000000E+00
        11  14 -4.747124E+05 -1.762633E+05 -1.301951E+05  1.661573E+05 -9.926167E-13  3.308722E-13
        11  15 -4.710998E+05 -1.563261E+05 -1.254852E+05  1.621269E+05 -4.963084E-13 -4.135903E-14
        11  16 -5.238774E+05 -1.694547E+05 -1.386664E+05  1.680115E+05  0.000000E+00  3.308722E-13
        11  17 -5.281042E+05 -1.540761E+05 -1.364361E+05  1.680814E+05 -8.271806E-14 -8.271806E-14
        11  18 -5.322931E+05 -1.350200E+05 -1.334626E+05  1.680908E+05 -6.203855E-14  1.240771E-13
        11  19 -4.355551E+05 -2.163065E+05 -1.303723E+05  1.740020E+05  7.940934E-12 -2.067952E-12
        11  20 -4.197680E+05 -1.998186E+05 -1.239173E+05  1.637998E+05  2.895132E-12 -9.926167E-13
        11  21 -4.062922E+05 -1.759861E+05 -1.164557E+05  1.542496E+05  9.719372E-13 -2.129990E-12
        11  22 -4.791383E+05 -1.902689E+05 -1.338815E+05  1.702588E+05 -1.985233E-12 -1.654361E-12
        11  23 -4.747124E+05 -1.762633E+05 -1.301951E+05  1.661573E+05  1.654361E-12  9.926167E-13
        11  24 -4.710998E+05 -1.563261E+05 -1.254852E+05  1.621269E+05  1.985233E-12 -7.444626E-13
        11  25 -5.238774E+05 -1.694547E+05 -1.386664E+05  1.680115E+05  0.000000E+00 -6.617445E-13
        11  26 -5.281042E+05 -1.540761E+05 -1.364361E+05  1.680814E+05  6.617445E-13  0.000000E+00
        11  27 -5.322931E+05 -1.350200E+05 -1.334626E+05  1.680908E+05  4.963084E-13 -2.481542E-13
        12   1 -4.700523E+05 -2.827951E+05 -1.505695E+05  2.087844E+05 -4.632211E-12  5.459392E-12
        12   2 -4.584002E+05 -2.623101E+05 -1.441420E+05  1.951394E+05 -1.323489E-12  5.542110E-12
        12   3 -4.477597E+05 -2.302566E+05 -1.356033E+05  1.824185E+05 -2.812414E-12  2.192029E-12
        12   4 -4.901669E+05 -2.543180E+05 -1.488970E+05  1.967984E+05 -5.293956E-12  3.308722E-12
        12   5 -4.877984E+05 -2.345769E+05 -1.444751E+05  1.860176E+05 -6.617445E-13  6.617445E-13