    1C
    1UUSER                                                              
    1UDATE              04.december.2017                                
    1UTIME              08:33:27                                        
    1UHOST                                                              
    1UPGM               CalculiX                                        
    1UVERSION           Version 2.13                             
    1UCOMPILETIME       So 8. Okt 22:10:07 CEST 2017                    
    1UDIR                                                               
    1UDBN                                                               
    1UMAT    1CONCRETE                                                  
    2C                           475                                     1
 -1         1 0.00000E+00 0.00000E+00 0.00000E+00
 -1         2 2.43840E+00 0.00000E+00 0.00000E+00
 -1         3 6.70560E+00 3.65760E+00 0.00000E+00
 -1         4 3.32232E+01 4.12047E+00 0.00000E+00
 -1         5 3.50520E+01 4.15239E+00 0.00000E+00
 -1         6 3.50520E+01 8.41959E+00 0.00000E+00
 -1         8 6.70560E+00 2.22504E+01 0.00000E+00
 -1        10 4.26720E+00 2.98704E+01 0.00000E+00
 -1        11 6.09600E-01 3.35280E+01 0.00000E+00
 -1        12 0.00000E+00 3.35280E+01 0.00000E+00
 -1        13 6.09600E-01 0.00000E+00 0.00000E+00
 -1        14 1.21920E+00 0.00000E+00 0.00000E+00
 -1        15 1.82880E+00 0.00000E+00 0.00000E+00
 -1        16 3.04800E-01 0.00000E+00 0.00000E+00
 -1        17 9.14400E-01 0.00000E+00 0.00000E+00
 -1        18 1.52400E+00 0.00000E+00 0.00000E+00
 -1        19 2.13360E+00 0.00000E+00 0.00000E+00
 -1        20 3.50520E+00 9.14400E-01 0.00000E+00
 -1        21 4.57200E+00 1.82880E+00 0.00000E+00
 -1        22 5.63880E+00 2.74320E+00 0.00000E+00
 -1        23 2.97180E+00 4.57200E-01 0.00000E+00
 -1        24 4.03860E+00 1.37160E+00 0.00000E+00
 -1        25 5.10540E+00 2.28600E+00 0.00000E+00
 -1        26 6.17220E+00 3.20040E+00 0.00000E+00
 -1        27 1.00203E+01 3.71546E+00 0.00000E+00
 -1        28 1.33350E+01 3.77332E+00 0.00000E+00
 -1        29 1.66497E+01 3.83118E+00 0.00000E+00
 -1        30 1.99644E+01 3.88903E+00 0.00000E+00
 -1        31 2.32791E+01 3.94689E+00 0.00000E+00
 -1        32 2.65938E+01 4.00475E+00 0.00000E+00
 -1        33 2.99085E+01 4.06261E+00 0.00000E+00
 -1        34 8.36295E+00 3.68653E+00 0.00000E+00
 -1        35 1.16777E+01 3.74439E+00 0.00000E+00
 -1        36 1.49923E+01 3.80225E+00 0.00000E+00
 -1        37 1.83071E+01 3.86010E+00 0.00000E+00
 -1        38 2.16217E+01 3.91796E+00 0.00000E+00
 -1        39 2.49364E+01 3.97582E+00 0.00000E+00
 -1        40 2.82512E+01 4.03368E+00 0.00000E+00
 -1        41 3.15658E+01 4.09154E+00 0.00000E+00
 -1        42 3.36804E+01 4.12845E+00 0.00000E+00
 -1        43 3.41376E+01 4.13643E+00 0.00000E+00
 -1        44 3.45948E+01 4.14441E+00 0.00000E+00
 -1        45 3.34518E+01 4.12446E+00 0.00000E+00
 -1        46 3.39090E+01 4.13244E+00 0.00000E+00
 -1        47 3.43662E+01 4.14042E+00 0.00000E+00
 -1        48 3.48234E+01 4.14840E+00 0.00000E+00
 -1        49 3.50520E+01 5.21919E+00 0.00000E+00
 -1        50 3.50520E+01 6.28599E+00 0.00000E+00
 -1        51 3.50520E+01 7.35279E+00 0.00000E+00
 -1        52 3.50520E+01 4.68579E+00 0.00000E+00
 -1        53 3.50520E+01 5.75259E+00 0.00000E+00
 -1        54 3.50520E+01 6.81939E+00 0.00000E+00
 -1        55 3.50520E+01 7.88619E+00 0.00000E+00
 -1        56 3.24397E+01 8.93301E+00 0.00000E+00
 -1        57 2.98548E+01 9.57049E+00 0.00000E+00
 -1        58 2.73033E+01 1.03306E+01 0.00000E+00
 -1        59 2.47909E+01 1.12115E+01 0.00000E+00
 -1        60 2.23235E+01 1.22113E+01 0.00000E+00
 -1        61 1.99065E+01 1.33277E+01 0.00000E+00
 -1        62 1.75456E+01 1.45582E+01 0.00000E+00
 -1        63 1.52460E+01 1.58999E+01 0.00000E+00
 -1        64 1.30132E+01 1.73498E+01 0.00000E+00
 -1        65 1.08520E+01 1.89045E+01 0.00000E+00
 -1        66 8.76743E+00 2.05606E+01 0.00000E+00
 -1        67 3.37428E+01 8.66071E+00 0.00000E+00
 -1        68 3.11434E+01 9.23633E+00 0.00000E+00
 -1        69 2.85745E+01 9.93531E+00 0.00000E+00
 -1        70 2.60418E+01 1.07561E+01 0.00000E+00
 -1        71 2.35512E+01 1.16967E+01 0.00000E+00
 -1        72 2.11083E+01 1.27551E+01 0.00000E+00
 -1        73 1.87187E+01 1.39289E+01 0.00000E+00
 -1        74 1.63878E+01 1.52153E+01 0.00000E+00
 -1        75 1.41209E+01 1.66115E+01 0.00000E+00
 -1        76 1.19233E+01 1.81142E+01 0.00000E+00
 -1        77 9.79982E+00 1.97201E+01 0.00000E+00
 -1        78 7.75539E+00 2.14255E+01 0.00000E+00
 -1        79 5.38402E+00 2.38623E+01 0.00000E+00
 -1        80 4.49953E+00 2.57497E+01 0.00000E+00
 -1        81 4.10651E+00 2.77967E+01 0.00000E+00
 -1        82 5.99467E+00 2.30152E+01 0.00000E+00
 -1        83 4.88306E+00 2.47785E+01 0.00000E+00
 -1        84 4.23934E+00 2.67610E+01 0.00000E+00
 -1        85 4.10307E+00 2.88409E+01 0.00000E+00
 -1        86 3.35280E+00 3.07848E+01 0.00000E+00
 -1        87 2.43840E+00 3.16992E+01 0.00000E+00
 -1        88 1.52400E+00 3.26136E+01 0.00000E+00
 -1        89 3.81000E+00 3.03276E+01 0.00000E+00
 -1        90 2.89560E+00 3.12420E+01 0.00000E+00
 -1        91 1.98120E+00 3.21564E+01 0.00000E+00
 -1        92 1.06680E+00 3.30708E+01 0.00000E+00
 -1        93 4.57200E-01 3.35280E+01 0.00000E+00
 -1        94 3.04800E-01 3.35280E+01 0.00000E+00
 -1        95 1.52400E-01 3.35280E+01 0.00000E+00
 -1        96 5.33400E-01 3.35280E+01 0.00000E+00
 -1        97 3.81000E-01 3.35280E+01 0.00000E+00
 -1        98 2.28600E-01 3.35280E+01 0.00000E+00
 -1        99 7.62000E-02 3.35280E+01 0.00000E+00
 -1       100 0.00000E+00 3.07340E+01 0.00000E+00
 -1       101 0.00000E+00 2.79400E+01 0.00000E+00
 -1       102 0.00000E+00 2.51460E+01 0.00000E+00
 -1       103 0.00000E+00 2.23520E+01 0.00000E+00
 -1       104 0.00000E+00 1.95580E+01 0.00000E+00
 -1       105 0.00000E+00 1.67640E+01 0.00000E+00
 -1       106 0.00000E+00 1.39700E+01 0.00000E+00
 -1       107 0.00000E+00 1.11760E+01 0.00000E+00
 -1       108 0.00000E+00 8.38200E+00 0.00000E+00
 -1       109 0.00000E+00 5.58800E+00 0.00000E+00
 -1       110 0.00000E+00 2.79400E+00 0.00000E+00
 -1       111 0.00000E+00 3.21310E+01 0.00000E+00
 -1       112 0.00000E+00 2.93370E+01 0.00000E+00
 -1       113 0.00000E+00 2.65430E+01 0.00000E+00
 -1       114 0.00000E+00 2.37490E+01 0.00000E+00
 -1       115 0.00000E+00 2.09550E+01 0.00000E+00
 -1       116 0.00000E+00 1.81610E+01 0.00000E+00
 -1       117 0.00000E+00 1.53670E+01 0.00000E+00
 -1       118 0.00000E+00 1.25730E+01 0.00000E+00
 -1       119 0.00000E+00 9.77900E+00 0.00000E+00
 -1       120 0.00000E+00 6.98500E+00 0.00000E+00
 -1       121 0.00000E+00 4.19100E+00 0.00000E+00
 -1       122 0.00000E+00 1.39700E+00 0.00000E+00
 -1       123 9.20851E-01 3.14766E+01 0.00000E+00
 -1       124 8.54249E+00 1.12496E+01 0.00000E+00
 -1       125 1.99847E+00 2.14671E+00 0.00000E+00
 -1       126 1.07559E+00 3.21983E+01 0.00000E+00
 -1       127 5.17996E+00 8.11036E+00 0.00000E+00
 -1       128 3.22193E+01 5.78612E+00 0.00000E+00
 -1       129 2.98331E+01 6.67502E+00 0.00000E+00
 -1       130 6.16198E+00 1.64180E+01 0.00000E+00
 -1       131 1.50254E+01 9.54948E+00 0.00000E+00
 -1       132 9.29388E+00 8.82236E+00 0.00000E+00
 -1       133 3.97860E+00 4.42637E+00 0.00000E+00
 -1       134 3.25486E+01 7.07442E+00 0.00000E+00
 -1       135 4.58152E+00 1.18659E+01 0.00000E+00
 -1       136 4.56063E+00 2.03840E+01 0.00000E+00
 -1       137 1.12199E+01 1.32671E+01 0.00000E+00
 -1       138 3.37425E+01 5.30566E+00 0.00000E+00
 -1       139 1.99396E+01 7.82786E+00 0.00000E+00
 -1       140 9.24085E+00 6.79318E+00 0.00000E+00
 -1       141 1.86774E+00 2.90373E+01 0.00000E+00
 -1       142 6.44357E+00 5.50357E+00 0.00000E+00
 -1       143 4.60426E-01 2.97083E+01 0.00000E+00
 -1       144 4.60426E-01 3.25023E+01 0.00000E+00
 -1       145 9.33869E-01 2.84887E+01 0.00000E+00
 -1       146 1.39429E+00 3.02570E+01 0.00000E+00
 -1       147 2.56924E+01 7.60814E+00 0.00000E+00
 -1       148 2.82135E+01 5.33989E+00 0.00000E+00
 -1       149 2.98440E+01 8.12276E+00 0.00000E+00
 -1       150 2.77584E+01 7.83523E+00 0.00000E+00
 -1       151 3.08099E+00 1.65910E+01 0.00000E+00
 -1       152 2.29076E+00 1.15209E+01 0.00000E+00
 -1       153 5.37175E+00 1.41419E+01 0.00000E+00
 -1       154 2.68588E+00 1.40560E+01 0.00000E+00
 -1       155 2.24977E+00 2.40508E+01 0.00000E+00
 -1       156 2.28031E+00 2.13680E+01 0.00000E+00
 -1       157 5.63311E+00 2.13172E+01 0.00000E+00
 -1       158 3.83217E+00 2.26151E+01 0.00000E+00
 -1       159 5.36130E+00 1.84010E+01 0.00000E+00
 -1       160 8.50698E+00 1.76612E+01 0.00000E+00
 -1       161 7.06437E+00 1.94808E+01 0.00000E+00
 -1       162 1.74825E+01 8.68867E+00 0.00000E+00
 -1       163 1.41802E+01 6.66140E+00 0.00000E+00
 -1       164 1.99520E+01 5.85845E+00 0.00000E+00
 -1       165 1.70661E+01 6.25992E+00 0.00000E+00
 -1       166 8.69092E+00 1.48425E+01 0.00000E+00
 -1       167 6.56201E+00 1.15578E+01 0.00000E+00
 -1       168 9.88117E+00 1.22584E+01 0.00000E+00
 -1       169 7.62646E+00 1.32001E+01 0.00000E+00
 -1       170 3.18364E+00 2.73935E+01 0.00000E+00
 -1       171 1.59182E+00 2.62697E+01 0.00000E+00
 -1       172 1.32330E+01 1.45835E+01 0.00000E+00
 -1       173 1.31226E+01 1.14083E+01 0.00000E+00
 -1       174 1.74659E+01 1.14386E+01 0.00000E+00
 -1       175 1.53341E+01 1.29832E+01 0.00000E+00
 -1       176 8.91818E+00 1.00360E+01 0.00000E+00
 -1       177 4.88074E+00 9.98813E+00 0.00000E+00
 -1       178 7.23692E+00 8.46636E+00 0.00000E+00
 -1       179 6.89946E+00 1.00121E+01 0.00000E+00
 -1       180 1.21596E+01 9.18592E+00 0.00000E+00
 -1       181 1.10204E+01 1.07221E+01 0.00000E+00
 -1       182 2.23652E+01 9.51970E+00 0.00000E+00
 -1       183 2.28222E+01 6.73329E+00 0.00000E+00
 -1       184 2.58998E+00 6.84918E+00 0.00000E+00
 -1       185 2.44037E+00 9.18506E+00 0.00000E+00
 -1       186 3.39401E+01 4.72104E+00 0.00000E+00
 -1       187 3.29809E+01 5.54589E+00 0.00000E+00
 -1       188 3.27212E+01 4.95329E+00 0.00000E+00
 -1       189 3.33307E+01 4.83717E+00 0.00000E+00
 -1       190 1.08520E+01 1.60961E+01 0.00000E+00
 -1       191 1.99030E+01 1.04500E+01 0.00000E+00
 -1       192 2.68065E+00 1.89795E+01 0.00000E+00
 -1       193 9.26736E+00 7.80777E+00 0.00000E+00
 -1       194 5.81176E+00 6.80697E+00 0.00000E+00
 -1       195 7.84221E+00 6.14838E+00 0.00000E+00
 -1       196 7.53956E+00 7.30737E+00 0.00000E+00
 -1       197 1.12879E+01 5.28325E+00 0.00000E+00
 -1       198 1.17238E+01 7.23458E+00 0.00000E+00
 -1       199 1.98930E+00 5.00719E+00 0.00000E+00
 -1       200 5.21109E+00 4.96497E+00 0.00000E+00
 -1       201 3.90053E+00 5.90708E+00 0.00000E+00
 -1       202 2.15307E+00 3.03683E+01 0.00000E+00
 -1       203 3.12979E+00 2.90825E+01 0.00000E+00
 -1       204 4.27530E+00 3.12759E+00 0.00000E+00
 -1       205 9.99234E-01 3.86735E+00 0.00000E+00
 -1       206 3.28523E+00 1.98775E+00 0.00000E+00
 -1       207 2.63727E+00 3.49747E+00 0.00000E+00
 -1       208 9.98221E-01 3.18375E+01 0.00000E+00
 -1       209 1.75699E+00 3.19488E+01 0.00000E+00
 -1       210 1.57564E+00 3.11029E+01 0.00000E+00
 -1       211 6.57458E+00 4.58059E+00 0.00000E+00
 -1       212 5.42494E+00 3.85409E+00 0.00000E+00
 -1       213 3.23839E+01 6.43027E+00 0.00000E+00
 -1       214 3.12017E+01 8.32246E+00 0.00000E+00
 -1       215 3.10262E+01 6.23057E+00 0.00000E+00
 -1       216 3.11139E+01 7.27651E+00 0.00000E+00
 -1       217 3.43973E+01 5.79582E+00 0.00000E+00
 -1       218 3.38003E+01 6.68020E+00 0.00000E+00
 -1       219 3.33906E+01 6.11304E+00 0.00000E+00
 -1       220 8.93125E+00 4.93192E+00 0.00000E+00
 -1       221 3.44960E+01 4.97012E+00 0.00000E+00
 -1       222 3.31200E+01 7.80661E+00 0.00000E+00
 -1       223 1.60883E+00 1.07335E+00 0.00000E+00
 -1       224 8.04417E-01 1.93368E+00 0.00000E+00
 -1       225 2.55702E+00 9.93877E-01 0.00000E+00
 -1       226 3.04674E+01 5.14659E+00 0.00000E+00
 -1       227 6.90195E-01 3.28632E+01 0.00000E+00
 -1       228 1.10710E+00 3.27384E+01 0.00000E+00
 -1       229 5.75310E-01 3.26827E+01 0.00000E+00
 -1       230 3.06950E-01 3.09815E+01 0.00000E+00
 -1       231 9.29530E-01 2.94846E+01 0.00000E+00
 -1       232 2.75308E+01 9.08290E+00 0.00000E+00
 -1       233 2.88012E+01 7.97899E+00 0.00000E+00
 -1       234 2.98494E+01 8.84663E+00 0.00000E+00
 -1       235 2.52416E+01 9.40983E+00 0.00000E+00
 -1       236 2.67254E+01 7.72168E+00 0.00000E+00
 -1       237 2.61431E+01 5.80644E+00 0.00000E+00
 -1       238 2.74036E+01 4.67232E+00 0.00000E+00
 -1       239 2.79859E+01 6.58756E+00 0.00000E+00
 -1       240 2.90233E+01 6.00745E+00 0.00000E+00
 -1       241 2.98385E+01 7.39889E+00 0.00000E+00
 -1       242 4.62149E+00 1.65045E+01 0.00000E+00
 -1       243 2.88343E+00 1.53235E+01 0.00000E+00
 -1       244 4.02881E+00 1.40989E+01 0.00000E+00
 -1       245 5.76687E+00 1.52799E+01 0.00000E+00
 -1       246 1.54050E+00 1.66775E+01 0.00000E+00
 -1       247 1.34294E+00 1.40130E+01 0.00000E+00
 -1       248 1.14538E+00 1.13485E+01 0.00000E+00
 -1       249 2.48832E+00 1.27885E+01 0.00000E+00
 -1       250 3.43614E+00 1.16934E+01 0.00000E+00
 -1       251 4.97664E+00 1.30039E+01 0.00000E+00
 -1       252 4.60809E+00 2.32387E+01 0.00000E+00
 -1       253 4.73264E+00 2.19661E+01 0.00000E+00
 -1       254 6.16936E+00 2.17838E+01 0.00000E+00
 -1       255 3.37465E+00 2.49003E+01 0.00000E+00
 -1       256 3.04097E+00 2.33330E+01 0.00000E+00
 -1       257 1.12488E+00 2.32014E+01 0.00000E+00
 -1       258 1.14016E+00 2.18600E+01 0.00000E+00
 -1       259 3.05624E+00 2.19915E+01 0.00000E+00
 -1       260 3.42047E+00 2.08760E+01 0.00000E+00
 -1       261 5.09687E+00 2.08506E+01 0.00000E+00
 -1       262 7.91590E+00 2.00207E+01 0.00000E+00
 -1       263 7.78567E+00 1.85710E+01 0.00000E+00
 -1       264 9.67947E+00 1.82829E+01 0.00000E+00
 -1       265 6.34874E+00 2.03990E+01 0.00000E+00
 -1       266 4.96096E+00 1.93925E+01 0.00000E+00
 -1       267 6.21283E+00 1.89409E+01 0.00000E+00
 -1       268 5.76164E+00 1.74095E+01 0.00000E+00
 -1       269 7.33448E+00 1.70396E+01 0.00000E+00
 -1       270 1.87110E+01 8.25827E+00 0.00000E+00
 -1       271 1.72743E+01 7.47430E+00 0.00000E+00
 -1       272 1.85090E+01 6.05919E+00 0.00000E+00
 -1       273 1.99458E+01 6.84315E+00 0.00000E+00
 -1       274 1.62539E+01 9.11908E+00 0.00000E+00
 -1       275 1.46028E+01 8.10544E+00 0.00000E+00
 -1       276 1.56231E+01 6.46066E+00 0.00000E+00
 -1       277 1.37576E+01 5.21736E+00 0.00000E+00
 -1       278 1.68579E+01 5.04555E+00 0.00000E+00
 -1       279 1.99582E+01 4.87374E+00 0.00000E+00
 -1       280 9.95538E+00 1.40548E+01 0.00000E+00
 -1       281 8.15869E+00 1.40213E+01 0.00000E+00
 -1       282 8.75381E+00 1.27293E+01 0.00000E+00
 -1       283 1.05505E+01 1.27627E+01 0.00000E+00
 -1       284 7.42645E+00 1.56302E+01 0.00000E+00
 -1       285 6.49911E+00 1.36710E+01 0.00000E+00
 -1       286 5.57176E+00 1.17118E+01 0.00000E+00
 -1       287 7.09423E+00 1.23790E+01 0.00000E+00
 -1       288 7.55225E+00 1.14037E+01 0.00000E+00
 -1       289 9.21183E+00 1.17540E+01 0.00000E+00
 -1       290 1.92079E+00 2.51603E+01 0.00000E+00
 -1       291 7.95909E-01 2.57079E+01 0.00000E+00
 -1       292 3.84158E+00 2.65716E+01 0.00000E+00
 -1       293 2.38773E+00 2.68316E+01 0.00000E+00
 -1       294 2.52569E+00 2.82154E+01 0.00000E+00
 -1       295 1.40080E+00 2.87630E+01 0.00000E+00
 -1       296 1.26284E+00 2.73792E+01 0.00000E+00
 -1       297 4.66935E-01 2.82143E+01 0.00000E+00
 -1       298 1.64398E+01 1.37707E+01 0.00000E+00
 -1       299 1.64000E+01 1.22109E+01 0.00000E+00
 -1       300 1.86862E+01 1.23832E+01 0.00000E+00
 -1       301 1.42395E+01 1.52417E+01 0.00000E+00
 -1       302 1.42835E+01 1.37834E+01 0.00000E+00
 -1       303 1.22264E+01 1.39253E+01 0.00000E+00
 -1       304 1.21712E+01 1.23377E+01 0.00000E+00
 -1       305 1.42283E+01 1.21958E+01 0.00000E+00
 -1       306 1.40740E+01 1.04789E+01 0.00000E+00
 -1       307 1.62456E+01 1.04940E+01 0.00000E+00
 -1       308 9.10603E+00 9.42917E+00 0.00000E+00
 -1       309 7.90882E+00 1.00240E+01 0.00000E+00
 -1       310 7.06819E+00 9.23921E+00 0.00000E+00
 -1       311 8.26540E+00 8.64436E+00 0.00000E+00
 -1       312 8.73034E+00 1.06428E+01 0.00000E+00
 -1       313 6.73073E+00 1.07849E+01 0.00000E+00
 -1       314 4.73113E+00 1.09270E+01 0.00000E+00
 -1       315 5.89010E+00 1.00001E+01 0.00000E+00
 -1       316 5.03035E+00 9.04925E+00 0.00000E+00
 -1       317 6.20844E+00 8.28836E+00 0.00000E+00
 -1       318 9.96929E+00 1.03791E+01 0.00000E+00
 -1       319 1.04508E+01 1.14903E+01 0.00000E+00
 -1       320 1.07267E+01 9.00414E+00 0.00000E+00
 -1       321 1.15900E+01 9.95403E+00 0.00000E+00
 -1       322 1.35925E+01 9.36770E+00 0.00000E+00
 -1       323 1.20715E+01 1.10652E+01 0.00000E+00
 -1       324 2.35781E+01 1.03656E+01 0.00000E+00
 -1       325 2.25937E+01 8.12649E+00 0.00000E+00
 -1       326 2.42573E+01 7.17072E+00 0.00000E+00
 -1       327 2.11524E+01 8.67378E+00 0.00000E+00
 -1       328 2.13871E+01 6.29587E+00 0.00000E+00
 -1       329 2.30506E+01 5.34009E+00 0.00000E+00
 -1       330 1.29499E+00 6.21859E+00 0.00000E+00
 -1       331 2.51518E+00 8.01712E+00 0.00000E+00
 -1       332 1.22019E+00 8.78353E+00 0.00000E+00
 -1       333 3.88497E+00 7.47977E+00 0.00000E+00
 -1       334 3.66056E+00 9.58660E+00 0.00000E+00
 -1       335 2.36557E+00 1.03530E+01 0.00000E+00
 -1       336 3.35055E+01 4.48281E+00 0.00000E+00
 -1       337 3.30259E+01 4.89523E+00 0.00000E+00
 -1       338 3.29722E+01 4.53688E+00 0.00000E+00
 -1       339 3.40388E+01 4.42873E+00 0.00000E+00
 -1       340 3.36354E+01 4.77910E+00 0.00000E+00
 -1       341 3.38413E+01 5.01335E+00 0.00000E+00
 -1       342 3.33617E+01 5.42577E+00 0.00000E+00
 -1       343 3.31558E+01 5.19153E+00 0.00000E+00
 -1       344 3.26001E+01 5.66600E+00 0.00000E+00
 -1       345 3.24703E+01 5.36970E+00 0.00000E+00
 -1       346 9.77147E+00 1.54693E+01 0.00000E+00
 -1       347 9.67950E+00 1.68787E+01 0.00000E+00
 -1       348 1.20425E+01 1.53398E+01 0.00000E+00
 -1       349 1.19326E+01 1.67230E+01 0.00000E+00
 -1       350 1.86927E+01 9.56934E+00 0.00000E+00
 -1       351 1.86844E+01 1.09443E+01 0.00000E+00
 -1       352 2.11341E+01 9.98485E+00 0.00000E+00
 -1       353 2.11132E+01 1.13307E+01 0.00000E+00
 -1       354 4.02098E+00 1.86902E+01 0.00000E+00
 -1       355 2.88082E+00 1.77852E+01 0.00000E+00
 -1       356 2.48048E+00 2.01737E+01 0.00000E+00
 -1       357 1.34033E+00 1.92687E+01 0.00000E+00
 -1       358 9.25411E+00 7.30047E+00 0.00000E+00
 -1       359 8.40346E+00 7.55757E+00 0.00000E+00
 -1       360 7.69089E+00 6.72787E+00 0.00000E+00
 -1       361 8.54153E+00 6.47078E+00 0.00000E+00
 -1       362 9.28062E+00 8.31506E+00 0.00000E+00
 -1       363 7.38824E+00 7.88686E+00 0.00000E+00
 -1       364 5.49586E+00 7.45867E+00 0.00000E+00
 -1       365 6.67566E+00 7.05717E+00 0.00000E+00
 -1       366 6.12767E+00 6.15527E+00 0.00000E+00
 -1       367 7.14289E+00 5.82597E+00 0.00000E+00
 -1       368 1.19417E+01 8.21025E+00 0.00000E+00
 -1       369 1.29520E+01 6.94799E+00 0.00000E+00
 -1       370 1.04956E+01 7.52117E+00 0.00000E+00
 -1       371 1.02644E+01 6.03821E+00 0.00000E+00
 -1       372 1.15058E+01 6.25891E+00 0.00000E+00
 -1       373 1.23115E+01 4.52828E+00 0.00000E+00
 -1       374 9.94651E-01 5.29759E+00 0.00000E+00
 -1       375 2.94492E+00 5.45713E+00 0.00000E+00
 -1       376 3.24526E+00 6.37813E+00 0.00000E+00
 -1       377 2.98395E+00 4.71678E+00 0.00000E+00
 -1       378 4.59484E+00 4.69567E+00 0.00000E+00
 -1       379 4.55581E+00 5.43603E+00 0.00000E+00
 -1       380 5.82733E+00 5.23427E+00 0.00000E+00
 -1       381 4.85615E+00 6.35702E+00 0.00000E+00
 -1       382 3.61815E+00 2.84396E+01 0.00000E+00
 -1       383 3.15671E+00 2.82380E+01 0.00000E+00
 -1       384 3.24129E+00 2.99336E+01 0.00000E+00
 -1       385 2.29573E+00 3.10337E+01 0.00000E+00
 -1       386 2.64143E+00 2.97254E+01 0.00000E+00
 -1       387 2.01040E+00 2.97028E+01 0.00000E+00
 -1       388 4.42365E+00 2.47819E+00 0.00000E+00
 -1       389 3.45628E+00 3.31253E+00 0.00000E+00
 -1       390 2.96125E+00 2.74261E+00 0.00000E+00
 -1       391 3.92862E+00 1.90828E+00 0.00000E+00
 -1       392 4.12695E+00 3.77698E+00 0.00000E+00
 -1       393 2.31329E+00 4.25233E+00 0.00000E+00
 -1       394 4.99617E-01 4.72768E+00 0.00000E+00
 -1       395 1.81825E+00 3.68241E+00 0.00000E+00
 -1       396 1.49885E+00 3.00703E+00 0.00000E+00
 -1       397 2.64185E+00 2.06723E+00 0.00000E+00
 -1       398 1.03691E+00 3.20179E+01 0.00000E+00
 -1       399 1.28693E+00 3.14702E+01 0.00000E+00
 -1       400 1.66632E+00 3.15258E+01 0.00000E+00
 -1       401 1.41629E+00 3.20735E+01 0.00000E+00
 -1       402 9.59536E-01 3.16570E+01 0.00000E+00
 -1       403 1.15757E+00 3.08668E+01 0.00000E+00
 -1       404 1.48497E+00 3.06799E+01 0.00000E+00
 -1       405 1.63102E+00 2.96471E+01 0.00000E+00
 -1       406 1.86436E+00 3.07356E+01 0.00000E+00
 -1       407 2.09770E+00 3.18240E+01 0.00000E+00
 -1       408 5.53187E+00 3.29864E+00 0.00000E+00
 -1       409 4.85012E+00 3.49084E+00 0.00000E+00
 -1       410 6.64009E+00 4.11909E+00 0.00000E+00
 -1       411 5.99976E+00 4.21734E+00 0.00000E+00
 -1       412 6.50908E+00 5.04208E+00 0.00000E+00
 -1       413 5.31801E+00 4.40953E+00 0.00000E+00
 -1       414 3.23016E+01 6.10819E+00 0.00000E+00
 -1       415 3.17489E+01 6.85339E+00 0.00000E+00
 -1       416 3.10701E+01 6.75354E+00 0.00000E+00
 -1       417 3.16227E+01 6.00834E+00 0.00000E+00
 -1       418 3.24662E+01 6.75234E+00 0.00000E+00
 -1       419 3.18751E+01 7.69843E+00 0.00000E+00
 -1       420 3.11578E+01 7.79948E+00 0.00000E+00
 -1       421 3.05282E+01 8.94647E+00 0.00000E+00
 -1       422 3.04789E+01 7.69964E+00 0.00000E+00
 -1       423 3.04297E+01 6.45280E+00 0.00000E+00
 -1       424 3.28873E+01 6.27166E+00 0.00000E+00
 -1       425 3.35954E+01 6.39662E+00 0.00000E+00
 -1       426 3.31744E+01 6.87731E+00 0.00000E+00
 -1       427 3.31857E+01 5.82946E+00 0.00000E+00
 -1       428 3.40699E+01 5.55074E+00 0.00000E+00
 -1       429 3.38939E+01 5.95443E+00 0.00000E+00
 -1       430 3.47246E+01 6.04090E+00 0.00000E+00
 -1       431 3.44261E+01 6.48310E+00 0.00000E+00
 -1       432 7.75292E+00 4.75625E+00 0.00000E+00
 -1       433 8.38673E+00 5.54015E+00 0.00000E+00
 -1       434 9.47578E+00 4.32369E+00 0.00000E+00
 -1       435 1.01096E+01 5.10758E+00 0.00000E+00
 -1       436 3.45454E+01 4.55726E+00 0.00000E+00
 -1       437 3.42180E+01 4.84558E+00 0.00000E+00
 -1       438 3.47740E+01 5.09465E+00 0.00000E+00
 -1       439 3.44466E+01 5.38297E+00 0.00000E+00
 -1       440 3.40860E+01 7.57970E+00 0.00000E+00
 -1       441 3.34601E+01 7.24340E+00 0.00000E+00
 -1       442 3.27798E+01 8.36981E+00 0.00000E+00
 -1       443 3.21608E+01 8.06453E+00 0.00000E+00
 -1       444 4.02209E-01 2.36384E+00 0.00000E+00
 -1       445 9.01826E-01 2.90052E+00 0.00000E+00
 -1       446 7.07009E-01 9.66838E-01 0.00000E+00
 -1       447 1.41402E+00 5.36677E-01 0.00000E+00
 -1       448 1.20663E+00 1.50352E+00 0.00000E+00
 -1       449 1.80365E+00 1.61003E+00 0.00000E+00
 -1       450 2.92113E+00 1.49082E+00 0.00000E+00
 -1       451 3.03111E+00 9.54138E-01 0.00000E+00
 -1       452 2.08293E+00 1.03361E+00 0.00000E+00
 -1       453 2.19291E+00 4.96938E-01 0.00000E+00
 -1       454 3.01879E+01 4.60460E+00 0.00000E+00
 -1       455 2.93404E+01 5.24324E+00 0.00000E+00
 -1       456 3.15943E+01 5.04994E+00 0.00000E+00
 -1       457 3.07468E+01 5.68858E+00 0.00000E+00
 -1       458 1.31555E+00 3.26760E+01 0.00000E+00
 -1       459 1.43205E+00 3.23436E+01 0.00000E+00
 -1       460 7.82149E-01 3.31332E+01 0.00000E+00
 -1       461 4.97498E-01 3.31956E+01 0.00000E+00
 -1       462 8.98647E-01 3.28008E+01 0.00000E+00
 -1       463 8.82893E-01 3.25307E+01 0.00000E+00
 -1       464 7.86766E-01 3.22601E+01 0.00000E+00
 -1       465 5.17868E-01 3.25925E+01 0.00000E+00
 -1       466 6.90638E-01 3.19894E+01 0.00000E+00
 -1       467 6.32753E-01 3.27729E+01 0.00000E+00
 -1       468 3.63855E-01 3.31054E+01 0.00000E+00
 -1       469 2.30213E-01 3.30151E+01 0.00000E+00
 -1       470 2.30213E-01 2.88241E+01 0.00000E+00
 -1       471 3.83688E-01 3.03449E+01 0.00000E+00
 -1       472 1.53475E-01 3.08578E+01 0.00000E+00
 -1       473 6.90638E-01 3.05924E+01 0.00000E+00
 -1       474 3.83688E-01 3.17419E+01 0.00000E+00
 -1       475 6.94978E-01 2.95965E+01 0.00000E+00
 -1       476 1.16191E+00 2.98708E+01 0.00000E+00
 -1       477 9.31700E-01 2.89866E+01 0.00000E+00
 -3
    3C                           138                                     1
 -1         1   10    0    1
 -2        57        58       150       149        69       232       233       234
 -1         2   10    0    1
 -2        58        59       147       150        70       235       236       232
 -1         3   10    0    1
 -2       150       147        32       148       236       237       238       239
 -1         4   10    0    1
 -2       149       150       148       129       233       239       240       241
 -1         5   10    0    1
 -2       130       151       154       153       242       243       244       245
 -1         6   10    0    1
 -2       151       105       106       154       246       117       247       243
 -1         7   10    0    1
 -2       154       106       107       152       247       118       248       249
 -1         8   10    0    1
 -2       153       154       152       135       244       249       250       251
 -1         9   10    0    1
 -2         8        79       158       157        82       252       253       254
 -1        10   10    0    1
 -2        79        80       155       158        83       255       256       252
 -1        11   10    0    1
 -2       158       155       103       156       256       257       258       259
 -1        12   10    0    1
 -2       157       158       156       136       253       259       260       261
 -1        13   10    0    1
 -2        65        66       161       160        77       262       263       264
 -1        14   10    0    1
 -2        66         8       157       161        78       254       265       262
 -1        15   10    0    1
 -2       161       157       136       159       265       261       266       267
 -1        16   10    0    1
 -2       160       161       159       130       263       267       268       269
 -1        17   10    0    1
 -2       139       162       165       164       270       271       272       273
 -1        18   10    0    1
 -2       162       131       163       165       274       275       276       271
 -1        19   10    0    1
 -2       165       163        28        29       276       277        36       278
 -1        20   10    0    1
 -2       164       165        29        30       272       278        37       279
 -1        21   10    0    1
 -2       137       166       169       168       280       281       282       283
 -1        22   10    0    1
 -2       166       130       153       169       284       245       285       281
 -1        23   10    0    1
 -2       169       153       135       167       285       251       286       287
 -1        24   10    0    1
 -2       168       169       167       124       282       287       288       289
 -1        25   10    0    1
 -2       103       155       171       102       257       290       291       114
 -1        26   10    0    1
 -2       155        80       170       171       255       292       293       290
 -1        27   10    0    1
 -2       171       170       141       145       293       294       295       296
 -1        28   10    0    1
 -2       102       171       145       101       291       296       297       113
 -1        29   10    0    1
 -2        61        62       175       174        73       298       299       300
 -1        30   10    0    1
 -2        62        63       172       175        74       301       302       298
 -1        31   10    0    1
 -2       175       172       137       173       302       303       304       305
 -1        32   10    0    1
 -2       174       175       173       131       299       305       306       307
 -1        33   10    0    1
 -2       132       176       179       178       308       309       310       311
 -1        34   10    0    1
 -2       176       124       167       179       312       288       313       309
 -1        35   10    0    1
 -2       179       167       135       177       313       286       314       315
 -1        36   10    0    1
 -2       178       179       177       127       310       315       316       317
 -1        37   10    0    1
 -2       124       176       181       168       312       318       319       289
 -1        38   10    0    1
 -2       176       132       180       181       308       320       321       318
 -1        39   10    0    1
 -2       181       180       131       173       321       322       306       323
 -1        40   10    0    1
 -2       168       181       173       137       319       323       304       283
 -1        41   10    0    1
 -2        59       182       183       147       324       325       326       235
 -1        42   10    0    1
 -2       182       139       164       183       327       273       328       325
 -1        43   10    0    1
 -2       183       164        30        31       328       279        38       329
 -1        44   10    0    1
 -2       147       183        31        32       326       329        39       237
 -1        45   10    0    1
 -2       109       184       185       108       330       331       332       120
 -1        46   10    0    1
 -2       184       127       177       185       333       316       334       331
 -1        47   10    0    1
 -2       185       177       135       152       334       314       250       335
 -1        48   10    0    1